2
Lattice="3.132065927997705 4.8358271276640005e-33 1.292569779745443e-38 -4.8358271276640005e-33 3.132065927997705 2.4469745848536564e-39 -9.904429894261153e-39 -0.10821415691490512 3.132065927997705" Properties=species:S:1:pos:R:3:force:R:3:forces:R:3 config_type=FLD_bcc energy_TB=-11.453562768661055 energy=-11.888594779227432 free_energy=-11.888594779227432 pbc="T T T"
Ti      -0.07294317      -0.02386087       0.27408197       0.39835630       0.29185333      -1.43119154       0.22204855      -0.13793781       0.01643766
Ti       1.61565993       1.55866240       1.46728810      -0.39835630      -0.29185333       1.43119154      -0.22204855       0.13793781      -0.01643766
2
Lattice="3.132065927997705 4.8358271276640005e-33 1.292569779745443e-38 -0.040928701876508336 3.132065927997705 2.4469745848536564e-39 -9.904429894261153e-39 -1.1388437822992012e-38 3.132065927997705" Properties=species:S:1:pos:R:3:force:R:3:forces:R:3 config_type=FLD_bcc energy_TB=-11.610286011012144 energy=-11.888594779227432 free_energy=-11.888594779227432 pbc="T T T"
Ti       0.17256671      -0.09786958       0.00177936      -0.67519330       1.05995406       0.10857737       0.22204855      -0.13793781       0.01643766
Ti       1.56741928       1.71386133       1.59186893       0.67519330      -1.05995406      -0.10857737      -0.22204855       0.13793781      -0.01643766
2
Lattice="3.132065927997705 4.8358271276640005e-33 -0.13920674042670061 -4.8358271276640005e-33 3.132065927997705 2.4469745848536564e-39 -9.904429894261153e-39 -1.1388437822992012e-38 3.132065927997705" Properties=species:S:1:pos:R:3:force:R:3:forces:R:3 config_type=FLD_bcc energy_TB=-11.74194577302894 energy=-11.888594779227432 free_energy=-11.888594779227432 pbc="T T T"
Ti       0.08185511       0.00695725       0.00448840      -0.48935752       0.26416499       0.17671199       0.22204855      -0.13793781       0.01643766
Ti       1.52554668       1.62967861       1.55078162       0.48935752      -0.26416499      -0.17671199      -0.22204855       0.13793781      -0.01643766
2
Lattice="3.132065927997705 0.06303876977727083 1.292569779745443e-38 -4.8358271276640005e-33 3.132065927997705 2.4469745848536564e-39 -9.904429894261153e-39 -1.1388437822992012e-38 3.132065927997705" Properties=species:S:1:pos:R:3:force:R:3:forces:R:3 config_type=FLD_bcc energy_TB=-11.71158332031253 energy=-11.888594779227432 free_energy=-11.888594779227432 pbc="T T T"
Ti       0.19553733      -0.10184510      -0.07838325       0.23648648       0.29893358       0.74944566       0.22204855      -0.13793781       0.01643766
Ti       1.80913780       1.55583509       1.66243212      -0.23648648      -0.29893358      -0.74944566      -0.22204855       0.13793781      -0.01643766
2
Lattice="3.511434270200934 4.8358271276640005e-33 1.292569779745443e-38 -4.8358271276640005e-33 3.132065927997705 2.4469745848536564e-39 -9.904429894261153e-39 -1.1388437822992012e-38 3.132065927997705" Properties=species:S:1:pos:R:3:force:R:3:forces:R:3 config_type=FLD_bcc energy_TB=-11.482812712910967 energy=-11.888594779227432 free_energy=-11.888594779227432 pbc="T T T"
Ti       0.06713735      -0.05803459       0.08595356      -1.50190738       0.46611216       0.16385611       0.22204855      -0.13793781       0.01643766
Ti       1.37609110       1.74076573       1.82721926       1.50190738      -0.46611216      -0.16385611      -0.22204855       0.13793781      -0.01643766
2
Lattice="3.132065927997705 4.8358271276640005e-33 0.19506194401868587 -4.8358271276640005e-33 3.132065927997705 2.4469745848536564e-39 -9.904429894261153e-39 -1.1388437822992012e-38 3.132065927997705" Properties=species:S:1:pos:R:3:force:R:3:forces:R:3 config_type=FLD_bcc energy_TB=-11.675733349618671 energy=-11.888594779227432 free_energy=-11.888594779227432 pbc="T T T"
Ti      -0.21318077       0.08310649      -0.13177204       0.48482883      -0.77730843       0.11587820       0.22204855      -0.13793781       0.01643766
Ti       1.46395333       1.45296402       1.53778762      -0.48482883       0.77730843      -0.11587820      -0.22204855       0.13793781      -0.01643766
2
Lattice="3.177741889447671 4.9063496066091006e-33 1.311419755700064e-38 -4.9063496066091006e-33 2.7479888865280047 2.4826596308827722e-39 -1.0048869496885794e-38 -1.1554519207910647e-38 3.177741889447671" Properties=species:S:1:pos:R:3:force:R:3:forces:R:3 config_type=FLD_bcc energy_TB=-11.222279525712151 energy=-11.888594779227432 free_energy=-11.888594779227432 pbc="T T T"
Ti      -0.14492671      -0.08262968      -0.05834765       0.64653041       0.58919287      -0.16408381       0.22204855      -0.13793781       0.01643766
Ti       1.60785397       1.43716737       1.49325655      -0.64653041      -0.58919287       0.16408381      -0.22204855       0.13793781      -0.01643766
2
Lattice="3.177741889447671 0.03566184402658955 1.311419755700064e-38 -4.9063496066091006e-33 3.177741889447671 2.4826596308827722e-39 -1.0048869496885794e-38 -1.1554519207910647e-38 3.177741889447671" Properties=species:S:1:pos:R:3:force:R:3:forces:R:3 config_type=FLD_bcc energy_TB=-11.67526395307014 energy=-11.888594779227432 free_energy=-11.888594779227432 pbc="T T T"
Ti      -0.06517057       0.19538334       0.13347425       0.66439754      -0.73251216      -0.49959234       0.22204855      -0.13793781       0.01643766
Ti       1.72022495       1.58401448       1.55568276      -0.66439754       0.73251216       0.49959234      -0.22204855       0.13793781      -0.01643766
2
Lattice="3.177741889447671 4.9063496066091006e-33 1.311419755700064e-38 -4.9063496066091006e-33 2.825120428286212 2.4826596308827722e-39 -1.0048869496885794e-38 -1.1554519207910647e-38 3.177741889447671" Properties=species:S:1:pos:R:3:force:R:3:forces:R:3 config_type=FLD_bcc energy_TB=-11.315818752799 energy=-11.888594779227432 free_energy=-11.888594779227432 pbc="T T T"
Ti       0.03217893      -0.03745806       0.00839017       0.11055702       0.92722617       0.38544659       0.22204855      -0.13793781       0.01643766
Ti       1.65141090       1.64530492       1.69273530      -0.11055702      -0.92722617      -0.38544659      -0.22204855       0.13793781      -0.01643766
2
Lattice="3.177741889447671 0.1375125693647638 1.311419755700064e-38 -4.9063496066091006e-33 3.177741889447671 2.4826596308827722e-39 -1.0048869496885794e-38 -1.1554519207910647e-38 3.177741889447671" Properties=species:S:1:pos:R:3:force:R:3:forces:R:3 config_type=FLD_bcc energy_TB=-11.885918036683194 energy=-11.888594779227432 free_energy=-11.888594779227432 pbc="T T T"
Ti      -0.08674721      -0.15700942      -0.07045197       0.10465345      -0.27511350       0.07222482       0.22204855      -0.13793781       0.01643766
Ti       1.51973460       1.42306670       1.54002024      -0.10465345       0.27511350      -0.07222482      -0.22204855       0.13793781      -0.01643766
2
Lattice="3.177741889447671 4.9063496066091006e-33 1.311419755700064e-38 0.02569270227935501 3.177741889447671 2.4826596308827722e-39 -1.0048869496885794e-38 -1.1554519207910647e-38 3.177741889447671" Properties=species:S:1:pos:R:3:force:R:3:forces:R:3 config_type=FLD_bcc energy_TB=-11.734569853947164 energy=-11.888594779227432 free_energy=-11.888594779227432 pbc="T T T"
Ti      -0.00901919       0.07077234      -0.15580855       0.50272393      -0.54719134       0.92433994       0.22204855      -0.13793781       0.01643766
Ti       1.71126776       1.53014317       1.66064141      -0.50272393       0.54719134      -0.92433994      -0.22204855       0.13793781      -0.01643766
2
Lattice="3.177741889447671 4.9063496066091006e-33 1.311419755700064e-38 -4.9063496066091006e-33 3.177741889447671 2.4826596308827722e-39 0.3592084935966331 -1.1554519207910647e-38 3.177741889447671" Properties=species:S:1:pos:R:3:force:R:3:forces:R:3 config_type=FLD_bcc energy_TB=-11.703143381027756 energy=-11.888594779227432 free_energy=-11.888594779227432 pbc="T T T"
Ti       0.11177900       0.01949850       0.04052543      -0.77925731      -0.39968829      -0.04231490       0.22204855      -0.13793781       0.01643766
Ti       1.64490702       1.41040399       1.70345011       0.77925731       0.39968829       0.04231490      -0.22204855       0.13793781      -0.01643766
2
Lattice="3.223417850897638 4.976872085554201e-33 1.3302697316546852e-38 -4.976872085554201e-33 3.223417850897638 2.518344676911888e-39 -0.19203981757784536 -1.172060059282928e-38 3.223417850897638" Properties=species:S:1:pos:R:3:force:R:3:forces:R:3 config_type=FLD_bcc energy_TB=-11.910331684242587 energy=-11.888594779227432 free_energy=-11.888594779227432 pbc="T T T"
Ti       0.06181082       0.01885848      -0.04602095      -0.53975113      -0.23414234       0.32495991       0.22204855      -0.13793781       0.01643766
Ti       1.42805272       1.58320043       1.66603155       0.53975113       0.23414234      -0.32495991      -0.22204855       0.13793781      -0.01643766
2
Lattice="3.223417850897638 4.976872085554201e-33 -0.0682713426485741 -4.976872085554201e-33 3.223417850897638 2.518344676911888e-39 -1.0193309099510436e-38 -1.172060059282928e-38 3.223417850897638" Properties=species:S:1:pos:R:3:force:R:3:forces:R:3 config_type=FLD_bcc energy_TB=-11.944433942146523 energy=-11.888594779227432 free_energy=-11.888594779227432 pbc="T T T"
Ti       0.06168861       0.11235087      -0.06303688      -0.35622739      -0.25186080       0.25021572       0.22204855      -0.13793781       0.01643766
Ti       1.57473267       1.66349103       1.58693625       0.35622739       0.25186080      -0.25021572      -0.22204855       0.13793781      -0.01643766
2
Lattice="3.223417850897638 4.976872085554201e-33 1.3302697316546852e-38 -0.005175219040849284 3.223417850897638 2.518344676911888e-39 -1.0193309099510436e-38 -1.172060059282928e-38 3.223417850897638" Properties=species:S:1:pos:R:3:force:R:3:forces:R:3 config_type=FLD_bcc energy_TB=-11.78031180754848 energy=-11.888594779227432 free_energy=-11.888594779227432 pbc="T T T"
Ti       0.11970648      -0.00536756       0.11894553      -0.61682686      -0.44012519      -1.08183010       0.22204855      -0.13793781       0.01643766
Ti       1.58964604       1.50531864       1.47081139       0.61682686       0.44012519       1.08183010      -0.22204855       0.13793781      -0.01643766
2
Lattice="3.223417850897638 4.976872085554201e-33 1.3302697316546852e-38 -4.976872085554201e-33 3.223417850897638 2.518344676911888e-39 -1.0193309099510436e-38 -1.172060059282928e-38 3.2402970157665165" Properties=species:S:1:pos:R:3:force:R:3:forces:R:3 config_type=FLD_bcc energy_TB=-11.96535901693871 energy=-11.888594779227432 free_energy=-11.888594779227432 pbc="T T T"
Ti      -0.08704090       0.00773691      -0.06678283      -0.06746037      -0.08703582       0.32127017       0.22204855      -0.13793781       0.01643766
Ti       1.50590328       1.59509153       1.65054985       0.06746037       0.08703582      -0.32127017      -0.22204855       0.13793781      -0.01643766
2
Lattice="3.499281258780667 4.976872085554201e-33 1.3302697316546852e-38 -4.976872085554201e-33 3.223417850897638 2.518344676911888e-39 -1.0193309099510436e-38 -1.172060059282928e-38 3.223417850897638" Properties=species:S:1:pos:R:3:force:R:3:forces:R:3 config_type=FLD_bcc energy_TB=-11.93682822742663 energy=-11.888594779227432 free_energy=-11.888594779227432 pbc="T T T"
Ti       0.02238137       0.05033781       0.12197850      -0.37441580      -0.43176173      -0.39618264       0.22204855      -0.13793781       0.01643766
Ti       1.65697926       1.55184523       1.63351448       0.37441580       0.43176173       0.39618264      -0.22204855       0.13793781      -0.01643766
2
Lattice="3.223417850897638 4.976872085554201e-33 1.3302697316546852e-38 -4.976872085554201e-33 3.223417850897638 0.009077684474732839 -1.0193309099510436e-38 -1.172060059282928e-38 3.223417850897638" Properties=species:S:1:pos:R:3:force:R:3:forces:R:3 config_type=FLD_bcc energy_TB=-11.809364286513162 energy=-11.888594779227432 free_energy=-11.888594779227432 pbc="T T T"
Ti      -0.02586171       0.02954664       0.21546168      -0.32506279      -0.65178455      -1.00588108       0.22204855      -0.13793781       0.01643766
Ti       1.51383767       1.49725213       1.59171705       0.32506279       0.65178455       1.00588108      -0.22204855       0.13793781      -0.01643766
2
Lattice="3.2690938123476045 5.047394564499301e-33 1.3491197076093062e-38 -5.047394564499301e-33 3.1927520227439343 2.554029722941004e-39 -1.0337748702135079e-38 -1.1886681977747915e-38 3.2690938123476045" Properties=species:S:1:pos:R:3:force:R:3:forces:R:3 config_type=FLD_bcc energy_TB=-11.991052447085229 energy=-11.888594779227432 free_energy=-11.888594779227432 pbc="T T T"
Ti       0.05115953       0.16373166      -0.07735272      -0.08967044      -0.00995798       0.08765600       0.22204855      -0.13793781       0.01643766
Ti       1.65356049       1.75666176       1.58842627       0.08967044       0.00995798      -0.08765600      -0.22204855       0.13793781      -0.01643766
2
Lattice="3.2690938123476045 5.047394564499301e-33 1.3491197076093062e-38 -5.047394564499301e-33 2.9603793459076764 2.554029722941004e-39 -1.0337748702135079e-38 -1.1886681977747915e-38 3.2690938123476045" Properties=species:S:1:pos:R:3:force:R:3:forces:R:3 config_type=FLD_bcc energy_TB=-11.689597381286745 energy=-11.888594779227432 free_energy=-11.888594779227432 pbc="T T T"
Ti      -0.08707560      -0.06149090       0.03476691       0.25682486       1.12739098      -0.08552193       0.22204855      -0.13793781       0.01643766
Ti       1.60205517       1.72363785       1.65085421      -0.25682486      -1.12739098       0.08552193      -0.22204855       0.13793781      -0.01643766
2
Lattice="3.2690938123476045 5.047394564499301e-33 0.12199425475137046 -5.047394564499301e-33 3.2690938123476045 2.554029722941004e-39 -1.0337748702135079e-38 -1.1886681977747915e-38 3.2690938123476045" Properties=species:S:1:pos:R:3:force:R:3:forces:R:3 config_type=FLD_bcc energy_TB=-11.865214166308679 energy=-11.888594779227432 free_energy=-11.888594779227432 pbc="T T T"
Ti       0.01275618      -0.09633555       0.13914095      -0.28137083      -0.22211776      -1.05860978       0.22204855      -0.13793781       0.01643766
Ti       1.56686234       1.49450186       1.57157613       0.28137083       0.22211776       1.05860978      -0.22204855       0.13793781      -0.01643766
2
Lattice="3.2690938123476045 5.047394564499301e-33 1.3491197076093062e-38 0.02211782544744283 3.2690938123476045 2.554029722941004e-39 -1.0337748702135079e-38 -1.1886681977747915e-38 3.2690938123476045" Properties=species:S:1:pos:R:3:force:R:3:forces:R:3 config_type=FLD_bcc energy_TB=-11.953482042081497 energy=-11.888594779227432 free_energy=-11.888594779227432 pbc="T T T"
Ti      -0.12931619      -0.14415546      -0.05956594       0.37574816       0.48533290       0.24540083       0.22204855      -0.13793781       0.01643766
Ti       1.61813268       1.61952868       1.63544242      -0.37574816      -0.48533290      -0.24540083      -0.22204855       0.13793781      -0.01643766
2
Lattice="3.2690938123476045 5.047394564499301e-33 1.3491197076093062e-38 0.032092827652852596 3.2690938123476045 2.554029722941004e-39 -1.0337748702135079e-38 -1.1886681977747915e-38 3.2690938123476045" Properties=species:S:1:pos:R:3:force:R:3:forces:R:3 config_type=FLD_bcc energy_TB=-11.900156196531299 energy=-11.888594779227432 free_energy=-11.888594779227432 pbc="T T T"
Ti      -0.10957475      -0.03486826       0.11361338       0.70342894       0.20281329      -0.68845004       0.22204855      -0.13793781       0.01643766
Ti       1.70892348       1.64677239       1.58585574      -0.70342894      -0.20281329       0.68845004      -0.22204855       0.13793781      -0.01643766
2
Lattice="3.2690938123476045 5.047394564499301e-33 1.3491197076093062e-38 -5.047394564499301e-33 3.578674930609303 2.554029722941004e-39 -1.0337748702135079e-38 -1.1886681977747915e-38 3.2690938123476045" Properties=species:S:1:pos:R:3:force:R:3:forces:R:3 config_type=FLD_bcc energy_TB=-11.843501665677316 energy=-11.888594779227432 free_energy=-11.888594779227432 pbc="T T T"
Ti      -0.08195697       0.00301031       0.00457307       0.32041634      -0.78485433      -0.00631330       0.22204855      -0.13793781       0.01643766
Ti       1.62563858       1.53733878       1.63760702      -0.32041634       0.78485433       0.00631330      -0.22204855       0.13793781      -0.01643766
2
Lattice="3.314769773797571 5.117917043444401e-33 1.3679696835639273e-38 -5.117917043444401e-33 3.314769773797571 2.5897147689701197e-39 0.023213252290353148 -1.2052763362666547e-38 3.314769773797571" Properties=species:S:1:pos:R:3:force:R:3:forces:R:3 config_type=FLD_bcc energy_TB=-11.904525265240608 energy=-11.888594779227432 free_energy=-11.888594779227432 pbc="T T T"
Ti       0.05342417       0.15984331      -0.11647166      -0.02590617      -0.58550728       0.66487213       0.22204855      -0.13793781       0.01643766
Ti       1.71865000       1.66767955       1.71582008       0.02590617       0.58550728      -0.66487213      -0.22204855       0.13793781      -0.01643766
2
Lattice="3.314769773797571 5.117917043444401e-33 -0.5775121298420491 -5.117917043444401e-33 3.314769773797571 2.5897147689701197e-39 -1.048218830475972e-38 -1.2052763362666547e-38 3.314769773797571" Properties=species:S:1:pos:R:3:force:R:3:forces:R:3 config_type=FLD_bcc energy_TB=-11.662613389808733 energy=-11.888594779227432 free_energy=-11.888594779227432 pbc="T T T"
Ti      -0.21657563       0.12126636      -0.00244306       0.72580513       0.01368298       1.03561664       0.22204855      -0.13793781       0.01643766
Ti       1.53929688       1.78860396       1.69623295      -0.72580513      -0.01368298      -1.03561664      -0.22204855       0.13793781      -0.01643766
2
Lattice="3.314769773797571 5.117917043444401e-33 1.3679696835639273e-38 -5.117917043444401e-33 3.471173831759595 2.5897147689701197e-39 -1.048218830475972e-38 -1.2052763362666547e-38 3.314769773797571" Properties=species:S:1:pos:R:3:force:R:3:forces:R:3 config_type=FLD_bcc energy_TB=-11.855015072533101 energy=-11.888594779227432 free_energy=-11.888594779227432 pbc="T T T"
Ti      -0.19563890       0.11864829      -0.04335950       0.30396815      -0.46385427       0.61308922       0.22204855      -0.13793781       0.01643766
Ti       1.54188677       1.71388319       1.78233095      -0.30396815       0.46385427      -0.61308922      -0.22204855       0.13793781      -0.01643766
2
Lattice="3.622290088023343 5.117917043444401e-33 1.3679696835639273e-38 -5.117917043444401e-33 3.314769773797571 2.5897147689701197e-39 -1.048218830475972e-38 -1.2052763362666547e-38 3.314769773797571" Properties=species:S:1:pos:R:3:force:R:3:forces:R:3 config_type=FLD_bcc energy_TB=-11.444049482369012 energy=-11.888594779227432 free_energy=-11.888594779227432 pbc="T T T"
Ti       0.12914060      -0.12222090       0.00759279      -2.02613651       0.41273772       0.11230117       0.22204855      -0.13793781       0.01643766
Ti       1.44254334       1.62844763       1.69249294       2.02613651      -0.41273772      -0.11230117      -0.22204855       0.13793781      -0.01643766
2
Lattice="3.314769773797571 5.117917043444401e-33 1.3679696835639273e-38 -5.117917043444401e-33 3.486989744200014 2.5897147689701197e-39 -1.048218830475972e-38 -1.2052763362666547e-38 3.314769773797571" Properties=species:S:1:pos:R:3:force:R:3:forces:R:3 config_type=FLD_bcc energy_TB=-11.904025987752794 energy=-11.888594779227432 free_energy=-11.888594779227432 pbc="T T T"
Ti       0.09647965      -0.12453554      -0.15773206       0.18068073       0.18118691       0.31117701       0.22204855      -0.13793781       0.01643766
Ti       1.81501178       1.68799172       1.60489304      -0.18068073      -0.18118691      -0.31117701      -0.22204855       0.13793781      -0.01643766
2
Lattice="3.314769773797571 5.117917043444401e-33 0.25629992273555735 -5.117917043444401e-33 3.314769773797571 2.5897147689701197e-39 -1.048218830475972e-38 -1.2052763362666547e-38 3.314769773797571" Properties=species:S:1:pos:R:3:force:R:3:forces:R:3 config_type=FLD_bcc energy_TB=-11.628483214923858 energy=-11.888594779227432 free_energy=-11.888594779227432 pbc="T T T"
Ti      -0.12274628      -0.01227322       0.02431512       1.00206117       0.00260834      -1.11904587       0.22204855      -0.13793781       0.01643766
Ti       1.77997378       1.56473409       1.49434291      -1.00206117      -0.00260834       1.11904587      -0.22204855       0.13793781      -0.01643766
2
Lattice="3.3604457352475374 5.188439522389501e-33 1.3868196595185484e-38 -0.24724962002930903 3.3604457352475374 2.6253998149992355e-39 -1.0626627907384362e-38 -1.221884474758518e-38 3.3604457352475374" Properties=species:S:1:pos:R:3:force:R:3:forces:R:3 config_type=FLD_bcc energy_TB=-11.873630193276833 energy=-11.888594779227432 free_energy=-11.888594779227432 pbc="T T T"
Ti      -0.06847172      -0.13798890       0.10950804       0.45544715       0.32384845      -0.21095559       0.22204855      -0.13793781       0.01643766
Ti       1.62859329       1.60017969       1.71019050      -0.45544715      -0.32384845       0.21095559      -0.22204855       0.13793781      -0.01643766
2
Lattice="3.196299828446742 5.188439522389501e-33 1.3868196595185484e-38 -5.188439522389501e-33 3.3604457352475374 2.6253998149992355e-39 -1.0626627907384362e-38 -1.221884474758518e-38 3.3604457352475374" Properties=species:S:1:pos:R:3:force:R:3:forces:R:3 config_type=FLD_bcc energy_TB=-11.917657434408076 energy=-11.888594779227432 free_energy=-11.888594779227432 pbc="T T T"
Ti      -0.02046933       0.13930680      -0.06863406       0.42988073      -0.46787553       0.55759330       0.22204855      -0.13793781       0.01643766
Ti       1.67997608       1.69724967       1.76287516      -0.42988073       0.46787553      -0.55759330      -0.22204855       0.13793781      -0.01643766
2
Lattice="3.3604457352475374 5.188439522389501e-33 1.3868196595185484e-38 -5.188439522389501e-33 3.5135058582027425 2.6253998149992355e-39 -1.0626627907384362e-38 -1.221884474758518e-38 3.3604457352475374" Properties=species:S:1:pos:R:3:force:R:3:forces:R:3 config_type=FLD_bcc energy_TB=-11.83809196836015 energy=-11.888594779227432 free_energy=-11.888594779227432 pbc="T T T"
Ti       0.13785020      -0.12953400      -0.04471771       0.21876135       0.06665273      -0.19524957       0.22204855      -0.13793781       0.01643766
Ti       1.90606066       1.65753438       1.55786558      -0.21876135      -0.06665273       0.19524957      -0.22204855       0.13793781      -0.01643766
2
Lattice="3.3604457352475374 -0.15906397074364914 1.3868196595185484e-38 -5.188439522389501e-33 3.3604457352475374 2.6253998149992355e-39 -1.0626627907384362e-38 -1.221884474758518e-38 3.3604457352475374" Properties=species:S:1:pos:R:3:force:R:3:forces:R:3 config_type=FLD_bcc energy_TB=-11.71196610131408 energy=-11.888594779227432 free_energy=-11.888594779227432 pbc="T T T"
Ti      -0.01226935      -0.17122660      -0.01664594       0.55136610       1.27961704       0.28601759       0.22204855      -0.13793781       0.01643766
Ti       1.76451948       1.76103307       1.74375854      -0.55136610      -1.27961704      -0.28601759      -0.22204855       0.13793781      -0.01643766
2
Lattice="3.3604457352475374 5.188439522389501e-33 0.38785617124001953 -5.188439522389501e-33 3.3604457352475374 2.6253998149992355e-39 -1.0626627907384362e-38 -1.221884474758518e-38 3.3604457352475374" Properties=species:S:1:pos:R:3:force:R:3:forces:R:3 config_type=FLD_bcc energy_TB=-11.764190748194848 energy=-11.888594779227432 free_energy=-11.888594779227432 pbc="T T T"
Ti      -0.04621934       0.02763991       0.05798646       0.33778658      -0.47263367      -0.74286630       0.22204855      -0.13793781       0.01643766
Ti       1.68195686       1.54620626       1.70669074      -0.33778658       0.47263367       0.74286630      -0.22204855       0.13793781      -0.01643766
2
Lattice="3.3604457352475374 5.188439522389501e-33 1.3868196595185484e-38 -5.188439522389501e-33 3.6985248705613785 2.6253998149992355e-39 -1.0626627907384362e-38 -1.221884474758518e-38 3.3604457352475374" Properties=species:S:1:pos:R:3:force:R:3:forces:R:3 config_type=FLD_bcc energy_TB=-11.513222202511672 energy=-11.888594779227432 free_energy=-11.888594779227432 pbc="T T T"
Ti       0.13976648       0.11081934      -0.08339417      -0.86991080      -0.85439161       0.34538958       0.22204855      -0.13793781       0.01643766
Ti       1.58835403       1.66403411       1.69746566       0.86991080       0.85439161      -0.34538958      -0.22204855       0.13793781      -0.01643766
2
Lattice="2.838633118938773 -9.0961503763418e-16 3.623822066344263e-39 -1.4193165594693855 2.458328393024831 2.452212088592052e-25 1.7516994558602412e-39 -0.1223639351867768 4.590833556342952" Properties=species:S:1:pos:R:3:force:R:3:forces:R:3 config_type=FLD_hcp energy_TB=-11.846288166829657 energy=-11.888594779227432 free_energy=-11.888594779227432 pbc="T T T"
Ti       0.13827514       0.11527939      -0.02680655       0.01090824      -0.03431297       1.11822844       0.22204855      -0.13793781       0.01643766
Ti      -0.10265007       1.57753905       2.49966400      -0.01090824       0.03431297      -1.11822844      -0.22204855       0.13793781      -0.01643766
2
Lattice="2.838633118938773 -9.0961503763418e-16 3.623822066344263e-39 -1.4193165594693855 2.458328393024831 2.452212088592052e-25 -0.10374429463435096 -4.579411593471682e-25 4.590833556342952" Properties=species:S:1:pos:R:3:force:R:3:forces:R:3 config_type=FLD_hcp energy_TB=-11.967102544664318 energy=-11.888594779227432 free_energy=-11.888594779227432 pbc="T T T"
Ti       0.02121122      -0.06440628       0.13897014       0.06014652       0.06295190      -0.21126692       0.22204855      -0.13793781       0.01643766
Ti       0.14916100       1.73650007       2.37893772      -0.06014652      -0.06295190       0.21126692      -0.22204855       0.13793781      -0.01643766
2
Lattice="2.838633118938773 -9.0961503763418e-16 -0.044796227160373916 -1.4193165594693855 2.458328393024831 2.452212088592052e-25 1.7516994558602412e-39 -4.579411593471682e-25 4.590833556342952" Properties=species:S:1:pos:R:3:force:R:3:forces:R:3 config_type=FLD_hcp energy_TB=-11.813308203290589 energy=-11.888594779227432 free_energy=-11.888594779227432 pbc="T T T"
Ti      -0.04996628       0.06482062      -0.20075046       0.00415731       0.08613741       1.32659269       0.22204855      -0.13793781       0.01643766
Ti      -0.15632974       1.54622408       2.34178285      -0.00415731      -0.08613741      -1.32659269      -0.22204855       0.13793781      -0.01643766
2
Lattice="2.838633118938773 -0.030578228667972836 3.623822066344263e-39 -1.4193165594693855 2.458328393024831 2.452212088592052e-25 1.7516994558602412e-39 -4.579411593471682e-25 4.590833556342952" Properties=species:S:1:pos:R:3:force:R:3:forces:R:3 config_type=FLD_hcp energy_TB=-11.808337846929717 energy=-11.888594779227432 free_energy=-11.888594779227432 pbc="T T T"
Ti       0.09224277      -0.06865219      -0.10152262       0.06135821      -0.02807492       1.27848589       0.22204855      -0.13793781       0.01643766
Ti       0.05044252       1.77639263       2.44625106      -0.06135821       0.02807492      -1.27848589      -0.22204855       0.13793781      -0.01643766
2
Lattice="2.838633118938773 -9.0961503763418e-16 0.37215601150191097 -1.4193165594693855 2.458328393024831 2.452212088592052e-25 1.7516994558602412e-39 -4.579411593471682e-25 4.590833556342952" Properties=species:S:1:pos:R:3:force:R:3:forces:R:3 config_type=FLD_hcp energy_TB=-11.908068662542718 energy=-11.888594779227432 free_energy=-11.888594779227432 pbc="T T T"
Ti       0.03891953       0.07612011       0.03422157       0.02104953      -0.02164999      -0.41048362       0.22204855      -0.13793781       0.01643766
Ti       0.01369220       1.59034277       2.35306659      -0.02104953       0.02164999       0.41048362      -0.22204855       0.13793781      -0.01643766
2
Lattice="2.838633118938773 -9.0961503763418e-16 3.623822066344263e-39 -1.4193165594693855 2.458328393024831 -0.18527345564003478 1.7516994558602412e-39 -4.579411593471682e-25 4.590833556342952" Properties=species:S:1:pos:R:3:force:R:3:forces:R:3 config_type=FLD_hcp energy_TB=-11.953252924062644 energy=-11.888594779227432 free_energy=-11.888594779227432 pbc="T T T"
Ti       0.03232267       0.01490928       0.02017447       0.03766069      -0.06910709      -0.38316709       0.22204855      -0.13793781       0.01643766
Ti       0.08093815       1.54515409       2.10969537      -0.03766069       0.06910709       0.38316709      -0.22204855       0.13793781      -0.01643766
2
Lattice="2.8800298519232963 -9.228802569330116e-16 3.67666947147845e-39 -1.4400149259616475 2.4941790154231103 0.24460966068246653 1.77724507292487e-39 -4.646194679209811e-25 4.657783212372953" Properties=species:S:1:pos:R:3:force:R:3:forces:R:3 config_type=FLD_hcp energy_TB=-12.024929699278797 energy=-11.888594779227432 free_energy=-11.888594779227432 pbc="T T T"
Ti      -0.00915028       0.17019629      -0.14329906      -0.11095690      -0.04362866      -0.22800259       0.22204855      -0.13793781       0.01643766
Ti      -0.17642136       1.64446544       2.26500614       0.11095690       0.04362866       0.22800259      -0.22204855       0.13793781      -0.01643766
2
Lattice="2.8800298519232963 -9.228802569330116e-16 3.67666947147845e-39 -1.4400149259616475 2.5519607927737407 2.4879735148840197e-25 1.77724507292487e-39 -4.646194679209811e-25 4.657783212372953" Properties=species:S:1:pos:R:3:force:R:3:forces:R:3 config_type=FLD_hcp energy_TB=-12.081186082445281 energy=-11.888594779227432 free_energy=-11.888594779227432 pbc="T T T"