2
Lattice="3.132065927997705 4.8358271276640005e-33 1.292569779745443e-38 -4.8358271276640005e-33 3.132065927997705 2.4469745848536564e-39 -9.904429894261153e-39 -0.13223429607484055 3.132065927997705" Properties=species:S:1:pos:R:3:force:R:3:forces:R:3 config_type=FLD_bcc energy_TB=-11.752577052940238 energy=-12.006273425950681 free_energy=-12.006273425950681 pbc="T T T"
Ti      -0.00261192       0.04584394       0.03736651      -0.28793377       0.31937941       0.22312028       0.08745852       0.12918394      -0.02041694
Ti       1.48694447       1.62254169       1.65306950       0.28793377      -0.31937941      -0.22312028      -0.08745852      -0.12918394       0.02041694
2
Lattice="3.132065927997705 4.8358271276640005e-33 1.292569779745443e-38 -0.1491998258599337 3.132065927997705 2.4469745848536564e-39 -9.904429894261153e-39 -1.1388437822992012e-38 3.132065927997705" Properties=species:S:1:pos:R:3:force:R:3:forces:R:3 config_type=FLD_bcc energy_TB=-11.687345920354852 energy=-12.006273425950681 free_energy=-12.006273425950681 pbc="T T T"
Ti      -0.06644248       0.08589797       0.06356396       0.47604741      -0.57062113      -0.64008416       0.08745852       0.12918394      -0.02041694
Ti       1.52974982       1.52432402       1.49932060      -0.47604741       0.57062113       0.64008416      -0.08745852      -0.12918394       0.02041694
2
Lattice="3.132065927997705 4.8358271276640005e-33 1.292569779745443e-38 -4.8358271276640005e-33 3.29569535907884 2.4469745848536564e-39 -9.904429894261153e-39 -1.1388437822992012e-38 3.132065927997705" Properties=species:S:1:pos:R:3:force:R:3:forces:R:3 config_type=FLD_bcc energy_TB=-11.84604360046028 energy=-12.006273425950681 free_energy=-12.006273425950681 pbc="T T T"
Ti      -0.01457263      -0.06682463       0.12172496       0.11791210       0.74393345       0.21012919       0.08745852       0.12918394      -0.02041694
Ti       1.57500269       1.77515852       1.73057035      -0.11791210      -0.74393345      -0.21012919      -0.08745852      -0.12918394       0.02041694
2
Lattice="3.246255831622621 5.012133325026751e-33 1.3396947196319956e-38 -5.012133325026751e-33 3.246255831622621 2.536187199926446e-39 -1.0265528900822757e-38 -0.2649699569557336 3.246255831622621" Properties=species:S:1:pos:R:3:force:R:3:forces:R:3 config_type=FLD_bcc energy_TB=-11.785660238884729 energy=-12.006273425950681 free_energy=-12.006273425950681 pbc="T T T"
Ti       0.04505541       0.03410805       0.05190597      -1.17114570      -0.16850028       0.34802361       0.08745852       0.12918394      -0.02041694
Ti       1.35658522       1.51335562       1.75622900       1.17114570       0.16850028      -0.34802361      -0.08745852      -0.12918394       0.02041694
2
Lattice="3.246255831622621 -0.09656342884063916 1.3396947196319956e-38 -5.012133325026751e-33 3.246255831622621 2.536187199926446e-39 -1.0265528900822757e-38 -1.1803641285288597e-38 3.246255831622621" Properties=species:S:1:pos:R:3:force:R:3:forces:R:3 config_type=FLD_bcc energy_TB=-11.856905939911274 energy=-12.006273425950681 free_energy=-12.006273425950681 pbc="T T T"
Ti      -0.06029045       0.14143901       0.00801130      -0.73104337      -0.72698403       0.33867283       0.08745852       0.12918394      -0.02041694
Ti       1.39657212       1.54331738       1.72513701       0.73104337       0.72698403      -0.33867283      -0.08745852      -0.12918394       0.02041694
2
Lattice="3.4503092263807593 5.012133325026751e-33 1.3396947196319956e-38 -5.012133325026751e-33 3.246255831622621 2.536187199926446e-39 -1.0265528900822757e-38 -1.1803641285288597e-38 3.246255831622621" Properties=species:S:1:pos:R:3:force:R:3:forces:R:3 config_type=FLD_bcc energy_TB=-11.970620318951614 energy=-12.006273425950681 free_energy=-12.006273425950681 pbc="T T T"
Ti      -0.02151089       0.00890238       0.06175182      -0.18222979      -0.32423373      -0.19975686       0.08745852       0.12918394      -0.02041694
Ti       1.64359970       1.53677658       1.62492928       0.18222979       0.32423373       0.19975686      -0.08745852      -0.12918394       0.02041694
2
Lattice="3.3604457352475374 5.188439522389501e-33 1.3868196595185484e-38 -5.188439522389501e-33 2.916879180805028 2.6253998149992355e-39 -1.0626627907384362e-38 -1.221884474758518e-38 3.3604457352475374" Properties=species:S:1:pos:R:3:force:R:3:forces:R:3 config_type=FLD_bcc energy_TB=-11.639471445334358 energy=-12.006273425950681 free_energy=-12.006273425950681 pbc="T T T"
Ti       0.12613843      -0.07186578      -0.11910732      -0.23290323       1.28603320       0.53777629       0.08745852       0.12918394      -0.02041694
Ti       1.74524821       1.77447969       1.69053549       0.23290323      -1.28603320      -0.53777629      -0.08745852      -0.12918394       0.02041694
2
Lattice="3.3604457352475374 0.3466047948693 1.3868196595185484e-38 -5.188439522389501e-33 3.3604457352475374 2.6253998149992355e-39 -1.0626627907384362e-38 -1.221884474758518e-38 3.3604457352475374" Properties=species:S:1:pos:R:3:force:R:3:forces:R:3 config_type=FLD_bcc energy_TB=-11.893073419065418 energy=-12.006273425950681 free_energy=-12.006273425950681 pbc="T T T"
Ti      -0.05881419      -0.09381692       0.00390400       0.02077354      -0.05043242      -0.12822497       0.08745852       0.12918394      -0.02041694
Ti       1.59134749       1.70985804       1.63270352      -0.02077354       0.05043242       0.12822497      -0.08745852      -0.12918394       0.02041694
2
Lattice="3.3604457352475374 5.188439522389501e-33 1.3868196595185484e-38 -5.188439522389501e-33 3.3604457352475374 2.6253998149992355e-39 -1.0626627907384362e-38 -1.221884474758518e-38 3.6195351907551623" Properties=species:S:1:pos:R:3:force:R:3:forces:R:3 config_type=FLD_bcc energy_TB=-11.752917459569305 energy=-12.006273425950681 free_energy=-12.006273425950681 pbc="T T T"
Ti      -0.05180305       0.05001328      -0.03041805      -0.08239190       0.15362521      -0.28942807       0.08745852       0.12918394      -0.02041694
Ti       1.60031606       1.78272123       1.62249398       0.08239190      -0.15362521       0.28942807      -0.08745852      -0.12918394       0.02041694
2
Lattice="2.838633118938773 -9.0961503763418e-16 3.623822066344263e-39 -1.4193165594693855 2.234643345461825 2.452212088592052e-25 1.7516994558602412e-39 -4.579411593471682e-25 4.590833556342952" Properties=species:S:1:pos:R:3:force:R:3:forces:R:3 config_type=FLD_hcp energy_TB=-11.583250721460114 energy=-12.006273425950681 free_energy=-12.006273425950681 pbc="T T T"
Ti      -0.17961807      -0.04629079       0.00107591       0.00760969       0.00286055       0.11639314       0.08745852       0.12918394      -0.02041694
Ti      -0.11348251       1.79545184       2.33030671      -0.00760969      -0.00286055      -0.11639314      -0.08745852      -0.12918394       0.02041694
2
Lattice="2.838633118938773 -9.0961503763418e-16 3.623822066344263e-39 -1.4193165594693855 2.458328393024831 2.452212088592052e-25 1.7516994558602412e-39 -4.579411593471682e-25 4.804644456708513" Properties=species:S:1:pos:R:3:force:R:3:forces:R:3 config_type=FLD_hcp energy_TB=-11.664760472366128 energy=-12.006273425950681 free_energy=-12.006273425950681 pbc="T T T"
Ti       0.00836917       0.03867495       0.16154610       0.04196209       0.03172766      -1.98568151       0.08745852       0.12918394      -0.02041694
Ti      -0.04930542       1.64291849       2.17079047      -0.04196209      -0.03172766       1.98568151      -0.08745852      -0.12918394       0.02041694
2
Lattice="2.838633118938773 -9.0961503763418e-16 3.623822066344263e-39 -1.4193165594693855 2.458328393024831 0.5832286565007951 1.7516994558602412e-39 -4.579411593471682e-25 4.590833556342952" Properties=species:S:1:pos:R:3:force:R:3:forces:R:3 config_type=FLD_hcp energy_TB=-11.694534218453303 energy=-12.006273425950681 free_energy=-12.006273425950681 pbc="T T T"
Ti       0.09127254      -0.06994278      -0.00263076       0.26210139       0.11507970      -1.00566216       0.08745852       0.12918394      -0.02041694
Ti      -0.02107259       1.72352943       2.37166637      -0.26210139      -0.11507970       1.00566216      -0.08745852      -0.12918394       0.02041694
2
Lattice="2.942124951400082 -9.427780858812595e-16 3.755940579179731e-39 -1.6754658486487297 2.547954949020528 2.541615654321971e-25 1.8155634985218125e-39 -4.746369307817004e-25 4.758207696417956" Properties=species:S:1:pos:R:3:force:R:3:forces:R:3 config_type=FLD_hcp energy_TB=-12.052666925613702 energy=-12.006273425950681 free_energy=-12.006273425950681 pbc="T T T"
Ti       0.02009902      -0.04636069      -0.04749698       0.26736985      -0.01205486       0.31658674       0.08745852       0.12918394      -0.02041694
Ti       0.05448648       1.54924509       2.41110647      -0.26736985       0.01205486      -0.31658674      -0.08745852      -0.12918394       0.02041694
2
Lattice="2.942124951400082 -9.427780858812595e-16 3.755940579179731e-39 -1.4739477258521583 2.547954949020528 2.541615654321971e-25 1.8155634985218125e-39 -4.746369307817004e-25 4.758207696417956" Properties=species:S:1:pos:R:3:force:R:3:forces:R:3 config_type=FLD_hcp energy_TB=-12.027298029548836 energy=-12.006273425950681 free_energy=-12.006273425950681 pbc="T T T"
Ti      -0.07635825      -0.03933461      -0.11175274       0.13424774       0.11283987       0.79198491       0.08745852       0.12918394      -0.02041694
Ti       0.13025445       1.84741260       2.46348226      -0.13424774      -0.11283987      -0.79198491      -0.08745852      -0.12918394       0.02041694
2
Lattice="2.942124951400082 -9.427780858812595e-16 3.755940579179731e-39 -0.9966045157550646 2.547954949020528 2.541615654321971e-25 1.8155634985218125e-39 -4.746369307817004e-25 4.758207696417956" Properties=species:S:1:pos:R:3:force:R:3:forces:R:3 config_type=FLD_hcp energy_TB=-11.759428368325525 energy=-12.006273425950681 free_energy=-12.006273425950681 pbc="T T T"
Ti       0.05187021      -0.03115779       0.06321625      -0.46876316       0.44290182      -0.34141455       0.08745852       0.12918394      -0.02041694
Ti       0.02262340       1.74247099       2.28577419       0.46876316      -0.44290182       0.34141455      -0.08745852      -0.12918394       0.02041694
2
Lattice="3.0456167838613917 -9.75941134128339e-16 3.888059092015199e-39 -1.522808391930695 2.573671623701265 2.631019220051889e-25 1.879427541183384e-39 -4.913327022162326e-25 4.925581836492959" Properties=species:S:1:pos:R:3:force:R:3:forces:R:3 config_type=FLD_hcp energy_TB=-11.768491328491104 energy=-12.006273425950681 free_energy=-12.006273425950681 pbc="T T T"
Ti      -0.09907909       0.02739461      -0.07844750       0.07456690      -0.11594997       1.45577534       0.08745852       0.12918394      -0.02041694
Ti       0.16499265       1.71007600       2.76035258      -0.07456690       0.11594997      -1.45577534      -0.08745852      -0.12918394       0.02041694
2
Lattice="3.0456167838613917 -9.75941134128339e-16 3.888059092015199e-39 -1.522808391930695 2.6375815050162252 0.3824057458914356 1.879427541183384e-39 -4.913327022162326e-25 4.925581836492959" Properties=species:S:1:pos:R:3:force:R:3:forces:R:3 config_type=FLD_hcp energy_TB=-11.868265120468964 energy=-12.006273425950681 free_energy=-12.006273425950681 pbc="T T T"
Ti      -0.02577459       0.20070314      -0.00249456       0.07556292       0.20966032      -0.73380013       0.08745852       0.12918394      -0.02041694
Ti       0.04760607       1.88139738       2.47948504      -0.07556292      -0.20966032       0.73380013      -0.08745852      -0.12918394       0.02041694
2
Lattice="3.0456167838613917 -9.75941134128339e-16 3.888059092015199e-39 -1.522808391930695 2.6375815050162252 2.631019220051889e-25 1.879427541183384e-39 -4.913327022162326e-25 4.962628363214089" Properties=species:S:1:pos:R:3:force:R:3:forces:R:3 config_type=FLD_hcp energy_TB=-12.006273425950681 energy=-12.006273425950681 free_energy=-12.006273425950681 pbc="T T T"
Ti      -0.08014586      -0.04405046       0.06417266       0.08745852       0.12918394      -0.02041694       0.08745852       0.12918394      -0.02041694
Ti      -0.02132141       1.82398174       2.53836622      -0.08745852      -0.12918394       0.02041694      -0.08745852      -0.12918394       0.02041694
