54
Lattice="9.200443663493257 1.4205242187513004e-32 3.796923728002239e-38 -1.4205242187513004e-32 9.260202856760657 7.187987843007615e-39 -2.9094262814392135e-38 -3.345353610503904e-38 9.200443663493257" Properties=species:S:1:pos:R:3:force:R:3:forces:R:3 config_type=FLD_bcc energy_TB=-311.18544872716603 energy=-323.4332514061673 free_energy=-323.4332514061673 pbc="T T T"
Ti      -0.02080161      -0.12094003       0.07823304       0.11322192       0.41322501      -0.30007425      -0.70889222      -0.23603856      -0.12819666
Ti       1.52366703       1.49845904       1.62178656       0.00437693       0.32518555      -0.46406246      -0.37324861      -0.45973974       0.23389892
Ti       0.00830038       0.02719882       3.10122085      -0.03038283      -0.27515583      -0.10775543      -0.58739733      -0.73472620       0.10465002
Ti       1.51271828       1.44160902       4.60098018       0.16302947       0.53481180       0.19293917      -0.47991946      -0.16980028      -0.29247676
Ti      -0.03267606       0.04888881       6.11906183       0.04399711      -0.48681981       0.18051542      -1.02134313      -1.20322054      -0.01192350
Ti       1.49272469       1.53459335       7.68924385      -0.07190813      -0.43038955       0.26516333      -0.79068949      -0.80251599       0.23393686
Ti      -0.03018089       3.11918535      -0.01455684       0.15324717      -0.40648415       0.19335409      -0.75856466      -0.82156602      -0.36380228
Ti       1.52552386       4.63013630       1.55115320      -0.06785760      -0.42109793      -0.04565304      -0.45238484       0.24245095       0.34913512
Ti      -0.05547875       3.06976359       3.13034662       0.21105577       0.07945765      -0.38427242      -0.94759701      -0.09984209       0.12819465
Ti       1.56557251       4.57797225       4.60123129      -0.26095977       0.12263512       0.10612172      -0.22315486      -0.44564121      -0.42537890
Ti      -0.02815955       2.99230465       6.17336321       0.13301983       0.24894199      -0.15136341      -0.71529371      -0.73064468       0.23448618
Ti       1.51010690       4.65413456       7.69374154      -0.02501017      -0.19491031       0.01571203      -0.65422526       0.05211927       0.25046903
Ti      -0.05608013       6.10471237       0.09219805       0.50142358       0.13883538      -0.29349399      -1.00731685      -0.05104339      -0.05377801
Ti       1.57560338       7.65608721       1.61687019      -0.24054387      -0.06959791      -0.19710378       0.05040063      -0.51360723      -0.19165643
Ti      -0.04992868       6.13728038       3.05618973       0.09930824       0.10188976       0.24867051      -1.12882237      -0.81042958      -0.09789051
Ti       1.57490165       7.67341467       4.51772795      -0.42415778      -0.08035232       0.55669651      -0.85280162      -0.05043081      -0.07754819
Ti       0.03009705       6.08733360       6.24047749      -0.14054868       0.33639693      -0.61695272      -1.35017461      -0.71231384       0.14635016
Ti       1.55074774       7.67926912       7.67620862      -0.26076910       0.09624653      -0.01990390      -0.31918628      -0.51928012       0.38868277
Ti       3.01042622      -0.11413318       0.07705442       0.20924387       0.41753327      -0.37661594      -0.37584000      -0.08394505       0.11068763
Ti       4.63060536       1.51475158       1.46133848      -0.12223572       0.06911521       0.29769654       0.07638826       0.56080861      -0.42764589
Ti       3.02490848       0.02528746       3.10240260       0.48029281      -0.07902122      -0.21407014      -0.11509271      -0.52214852       0.14566258
Ti       4.54465754       1.51317189       4.66234919       0.07806941       0.35862835      -0.02107949      -0.18485927      -0.27263295       0.20176160
Ti       3.07865690      -0.05520081       6.15548644       0.02774876      -0.09686019       0.01926934       0.49415820       0.29772387      -0.10454366
Ti       4.60063157       1.54288836       7.61573009      -0.17681126      -0.12594331       0.42777989      -0.27641586       0.02269675       0.43210078
Ti       3.02410835       2.96682714      -0.01104960      -0.04102540       0.15438029       0.20470294       0.12601736      -0.01320671       0.36134421
Ti       4.67804296       4.59767493       1.55090681      -0.46733944       0.00154806      -0.05629838      -0.09103390      -0.08513692      -0.52299982
Ti       3.09545047       3.12769391       3.06615028       0.07877479      -0.31606547      -0.01030040       0.09299054      -0.09992264      -0.09887649
Ti       4.58979009       4.63054905       4.60368780       0.10464580       0.03340774       0.07023290      -0.08971211       0.09022102       0.50955267
Ti       2.97231067       3.11805863       6.19983158       0.27500162      -0.18429735      -0.20617486       0.20776468       0.77921530      -0.34014868
Ti       4.60965386       4.54965566       7.68879405      -0.35375130       0.31896669      -0.21137213       0.25198112       0.33718820       0.08037355
Ti       3.05818539       6.12279538      -0.03529845       0.33636879       0.18112728       0.16036620       0.21880683      -0.51623965      -0.00955164
Ti       4.60893209       7.62595034       1.52565392      -0.13090100       0.38204880       0.04711017      -0.31107217       0.01818443       0.51525865
Ti       3.06648200       6.10982920       3.02104323       0.04203921      -0.25282349       0.12443762      -0.04048003      -0.09465032       0.46079656
Ti       4.55063425       7.67923475       4.55522780       0.45789506       0.21885196       0.21245918      -0.29052725       0.21419295      -0.08492231
Ti       3.04491045       6.18276283       6.12955056       0.10221035      -0.02326030       0.01710064       0.16890339      -0.28059983      -0.49323643
Ti       4.67999168       7.66948547       7.66931520      -0.35793954       0.18339741       0.20228108      -0.58407891       0.16345244      -0.51292973
Ti       6.19679099      -0.01875658       0.07995319      -0.22006483      -0.12721422      -0.31102958       0.61567386       0.92686628       0.23862949
Ti       7.62598024       1.51646931       1.52533440       0.08216736       0.13082706       0.05578897       0.74919977       0.44099988      -0.50611158
Ti       6.09146574       0.03383602       3.09654582      -0.00463803      -0.12947954      -0.09855126       0.82243250      -0.22708494      -0.21711564
Ti       7.76280858       1.58358624       4.55570960      -0.66710042      -0.00367957       0.23332233       0.89271843       0.52697464       0.38234748
Ti       6.08639665       0.06961684       6.22763853       0.22179951      -0.41064398      -0.44748908       0.12241054       0.93114860       0.32414232
Ti       7.57778586       1.49873855       7.67698283       0.41064464       0.09973414       0.20337614       1.01937454       0.32412205       0.23083287
Ti       6.13770030       3.19805230       0.00709255      -0.07377487      -0.68841247      -0.08537668       0.48035644      -0.20354995       0.23171858
Ti       7.64129384       4.65091976       1.44653300       0.19683207      -0.21459850       0.50667487       0.90996531       0.13348108      -0.00573578
Ti       6.13519509       3.13044803       3.06649016      -0.13329448      -0.49664784       0.07341025       0.50838448       1.12906307      -0.38051561
Ti       7.65869967       4.61594547       4.53551693       0.05606273       0.15420603       0.47124429       0.99441346       0.71200477       0.50102448
Ti       6.11717217       3.14643345       6.17339351      -0.03014591      -0.28915214      -0.45320682       0.54886513       0.37598397      -0.55161138
Ti       7.62344151       4.55359203       7.71368581       0.17769468       0.26811380      -0.20774249       1.07638143       0.76308782      -0.28082211
Ti       6.07456209       6.15930984       0.02472218      -0.06429773       0.01152776      -0.19065634       0.48730818       0.06116576      -0.00393269
Ti       7.74674380       7.73549379       1.49031543      -0.27557226       0.18962494       0.38876817       0.58910051       0.70793735      -0.03914931
Ti       6.20165808       6.21213064       3.03108032      -0.08553776       0.15005035       0.39719015       0.18045082       0.34368520       0.35539482
Ti       7.65522273       7.76682055       4.63480793      -0.04963573      -0.28144103       0.27090211       1.35752474       0.35006454      -0.27363571
Ti       6.15690040       6.16143406       6.14331859       0.09964470      -0.09498436      -0.23204059       0.52368754      -0.25638006      -0.53100146
Ti       7.70929920       7.59533831       7.73683321      -0.08361253       0.45861793      -0.44064698       1.16446579       0.51149905      -0.12429479
54
Lattice="9.544108886068393 1.4205242187513004e-32 3.796923728002239e-38 -1.4205242187513004e-32 9.200443663493257 7.187987843007615e-39 -2.9094262814392135e-38 -3.345353610503904e-38 9.200443663493257" Properties=species:S:1:pos:R:3:force:R:3:forces:R:3 config_type=FLD_bcc energy_TB=-312.9496276201082 energy=-323.4332514061673 free_energy=-323.4332514061673 pbc="T T T"
Ti       0.03025861       0.01719132      -0.02937127      -1.27861911      -0.16092446       0.04529552      -0.70889222      -0.23603856      -0.12819666
Ti       1.51360749       1.53776022       1.55183209      -0.22846247       0.04584905      -0.39110919      -0.37324861      -0.45973974       0.23389892
Ti       0.06270001      -0.00151436       3.03393242      -1.18345904      -0.14568681       0.23969931      -0.58739733      -0.73472620       0.10465002
Ti       1.52146822       1.57297076       4.68414964      -0.06685855       0.02629919      -0.22170994      -0.47991946      -0.16980028      -0.29247676
Ti       0.02646696      -0.02471956       6.05793055      -1.29742260      -0.00811666       0.07809767      -1.02134313      -1.20322054      -0.01192350
Ti       1.50174146       1.54794871       7.66237351      -0.32885680       0.12411878      -0.07025583      -0.79068949      -0.80251599       0.23393686
Ti      -0.04621242       3.08651045       0.03923108      -0.87208454       0.03942955      -0.13569398      -0.75856466      -0.82156602      -0.36380228
Ti       1.56642678       4.66552888       1.58078825      -0.47231986      -0.34775110      -0.22575947      -0.45238484       0.24245095       0.34913512
Ti      -0.04976239       2.95328092       3.16712698      -0.90493044       0.44919081      -0.37785030      -0.94759701      -0.09984209       0.12819465
Ti       1.45772914       4.61989902       4.62586781      -0.16659263      -0.29060171      -0.08592228      -0.22315486      -0.44564121      -0.42537890
Ti      -0.05935590       3.04373783       6.13346503      -1.10351314       0.24336949       0.13333720      -0.71529371      -0.73064468       0.23448618
Ti       1.51502205       4.60843953       7.63141456      -0.61163017      -0.02179353       0.12058103      -0.65422526       0.05211927       0.25046903
Ti      -0.00252056       6.18392530      -0.01029795      -0.96039001      -0.19788180       0.04661513      -1.00731685      -0.05104339      -0.05377801
Ti       1.55159401       7.64833941       1.55333488      -0.30142663       0.14707374      -0.17259395       0.05040063      -0.51360723      -0.19165643
Ti       0.05995882       6.05885307       3.04512949      -1.47606653       0.26744483       0.10472830      -1.12882237      -0.81042958      -0.09789051
Ti       1.65418097       7.61786020       4.58571863      -0.41254544       0.23251862      -0.17081896      -0.85280162      -0.05043081      -0.07754819
Ti      -0.00869917       6.17816570       6.05894678      -1.17204316       0.06168517       0.24398500      -1.35017461      -0.71231384       0.14635016
Ti       1.60303535       7.66153670       7.59861991      -0.70656266       0.03970027       0.01101236      -0.31918628      -0.51928012       0.38868277
Ti       3.03232629      -0.01364496      -0.13932788       0.29123497       0.20852480       0.61922699      -0.37584000      -0.08394505       0.11068763
Ti       4.64121505       1.54531898       1.66151601      -0.47889560      -0.09297022      -0.63516489       0.07638826       0.56080861      -0.42764589
Ti       3.09762441       0.05349225       3.03699219       0.05254531      -0.27214049       0.27611344      -0.11509271      -0.52214852       0.14566258
Ti       4.64097188       1.52907847       4.56264187      -0.38242179       0.22030329      -0.01959239      -0.18485927      -0.27263295       0.20176160
Ti       3.06279678       0.01262443       6.14168698       0.13502042       0.02013555      -0.01890324       0.49415820       0.29772387      -0.10454366
Ti       4.64923521       1.49896060       7.61275970      -0.23979516       0.06405597       0.12469903      -0.27641586       0.02269675       0.43210078
Ti       3.04984250       3.10579350      -0.07654690       0.09781248      -0.21321854       0.50874261       0.12601736      -0.01320671       0.36134421
Ti       4.66342345       4.59953331       1.56295428      -0.46031810       0.14601095      -0.27107796      -0.09103390      -0.08513692      -0.52299982
Ti       3.07797425       3.12418130       2.99337434      -0.18024214      -0.14226475       0.31713236       0.09299054      -0.09992264      -0.09887649
Ti       4.53882338       4.57220596       4.64731456       0.14942478       0.06115904      -0.37928195      -0.08971211       0.09022102       0.50955267
Ti       3.10216324       3.17730352       6.14528666      -0.06592702      -0.50194290      -0.01093727       0.20776468       0.77921530      -0.34014868
Ti       4.62179906       4.59052412       7.69750531      -0.25311133      -0.05210736       0.11421378       0.25198112       0.33718820       0.08037355
Ti       3.00708712       6.12708349      -0.05710042       0.34021768      -0.00665673       0.35599896       0.21880683      -0.51623965      -0.00955164
Ti       4.63613991       7.67063633       1.48607107      -0.36175902       0.04359399       0.13480834      -0.31107217       0.01818443       0.51525865
Ti       3.05977220       6.10948656       3.09469415       0.34810107       0.18370082      -0.05927323      -0.04048003      -0.09465032       0.46079656
Ti       4.59449265       7.65877445       4.71372282       0.08858669       0.32657091      -0.68986653      -0.29052725       0.21419295      -0.08492231
Ti       3.14172406       6.09598140       6.15836452      -0.10991170      -0.03769858      -0.03241027       0.16890339      -0.28059983      -0.49323643
Ti       4.65802479       7.65657033       7.66173351      -0.36584338       0.28513588       0.08805776      -0.58407891       0.16345244      -0.51292973
Ti       6.06227739      -0.03824678       0.00839204       0.82909038       0.02251744       0.00134214       0.61567386       0.92686628       0.23862949
Ti       7.69090235       1.50891985       1.54082394       1.22407768      -0.12522822      -0.26176165       0.74919977       0.44099988      -0.50611158
Ti       6.10042003       0.16780304       3.00102268       0.33743048      -0.74029228       0.19357803       0.82243250      -0.22708494      -0.21711564
Ti       7.67021038       1.59910736       4.55842659       0.98059624      -0.30072818       0.26232717       0.89271843       0.52697464       0.38234748
Ti       6.18561793       0.04347388       6.12299721       0.77618738      -0.23621723      -0.09358001       0.12241054       0.93114860       0.32414232
Ti       7.64435317       1.60247210       7.59763605       1.09718514      -0.34413894       0.37450787       1.01937454       0.32412205       0.23083287
Ti       6.13571504       3.06425241       0.00405798       0.48491351      -0.25509477       0.02057557       0.48035644      -0.20354995       0.23171858
Ti       7.64221361       4.53072586       1.50750140       1.29127925       0.34594262       0.07563403       0.90996531       0.13348108      -0.00573578
Ti       6.16392788       3.09182947       3.01147892       0.44713235       0.12376176       0.39081447       0.50838448       1.12906307      -0.38051561
Ti       7.64262381       4.68342870       4.67889955       1.26441012      -0.27416888      -0.18707594       0.99441346       0.71200477       0.50102448
Ti       6.02928854       3.08255340       6.15544397       0.63746329      -0.12116724      -0.07218315       0.54886513       0.37598397      -0.55161138
Ti       7.63340508       4.63639632       7.71386936       1.26331300      -0.03211618      -0.20194400       1.07638143       0.76308782      -0.28082211
Ti       6.04777593       6.15172736      -0.00731695       0.78552785       0.11156033       0.29916251       0.48730818       0.06116576      -0.00393269
Ti       7.70585507       7.63225776       1.52728403       0.83398223       0.22243640       0.14091147       0.58910051       0.70793735      -0.03914931
Ti       6.17234293       6.07700879       3.08422853       0.28547890       0.16389641       0.05976539       0.18045082       0.34368520       0.35539482
Ti       7.66482465       7.62534498       4.58844137       0.99315677       0.25356166      -0.37654755       1.35752474       0.35006454      -0.27363571
Ti       6.07615861       6.17156805       6.14625835       0.55163702       0.03649088      -0.12599580       0.52368754      -0.25638006      -0.53100146
Ti       7.74014809       7.59619896       7.68488975       0.85620401       0.40486936      -0.09365372       1.16446579       0.51149905      -0.12429479
54
Lattice="9.200443663493257 1.4205242187513004e-32 3.796923728002239e-38 -1.4205242187513004e-32 9.495768288470176 7.187987843007615e-39 -2.9094262814392135e-38 -3.345353610503904e-38 9.200443663493257" Properties=species:S:1:pos:R:3:force:R:3:forces:R:3 config_type=FLD_bcc energy_TB=-312.6405775134971 energy=-323.4332514061673 free_energy=-323.4332514061673 pbc="T T T"
Ti       0.01878519       0.02693093      -0.00528306       0.01068569      -1.12115710      -0.07353599      -0.70889222      -0.23603856      -0.12819666
Ti       1.55514999       1.46431477       1.50102027      -0.00277025      -0.20760744       0.08396092      -0.37324861      -0.45973974       0.23389892
Ti       0.02075158       0.07144291       3.09343009      -0.34472182      -1.40122496       0.01106494      -0.58739733      -0.73472620       0.10465002
Ti       1.48737395       1.53138511       4.65337728       0.50711245      -0.12899025      -0.15764752      -0.47991946      -0.16980028      -0.29247676
Ti       0.03970151       0.00454147       6.09431896      -0.29318968      -1.20808258       0.22851868      -1.02134313      -1.20322054      -0.01192350
Ti       1.50179301       1.54514085       7.63194717       0.27217575      -0.32094799       0.01884129      -0.79068949      -0.80251599       0.23393686
Ti      -0.00534175       3.02093294       0.00740410      -0.30093639       0.21680829      -0.00768237      -0.75856466      -0.82156602      -0.36380228
Ti       1.51946650       4.59292029       1.46901112       0.07698766       0.24611166       0.08864365      -0.45238484       0.24245095       0.34913512
Ti       0.07093009       3.11228416       3.08294253      -0.23465137      -0.28745955      -0.02839710      -0.94759701      -0.09984209       0.12819465
Ti       1.49594902       4.52134062       4.66296458       0.25941938       0.41424821      -0.25026486      -0.22315486      -0.44564121      -0.42537890
Ti       0.05969427       3.12430279       6.15578219      -0.28047649      -0.11049918       0.23384814      -0.71529371      -0.73064468       0.23448618
Ti       1.60165828       4.51256674       7.72728403      -0.23622605       0.36611284      -0.11661526      -0.65422526       0.05211927       0.25046903
Ti       0.03367580       6.09120251      -0.00203424      -0.02137447       0.22638617      -0.24659880      -1.00731685      -0.05104339      -0.05377801
Ti       1.44696870       7.62741726       1.48767062       0.37933284       0.93189586       0.25120982       0.05040063      -0.51360723      -0.19165643
Ti      -0.01658494       6.08613064       3.03566575       0.10099783       0.33569111       0.20121294      -1.12882237      -0.81042958      -0.09789051
Ti       1.50823518       7.68064216       4.66415295       0.26204143       0.61576079      -0.39780200      -0.85280162      -0.05043081      -0.07754819
Ti      -0.07412063       6.17080877       6.05764011       0.15007874       0.12887017       0.31422533      -1.35017461      -0.71231384       0.14635016
Ti       1.58130785       7.63673941       7.56431295      -0.03316628       0.94613885       0.18648196      -0.31918628      -0.51928012       0.38868277
Ti       3.01563874      -0.04734211      -0.02976487       0.32541928      -1.10792450      -0.01102184      -0.37584000      -0.08394505       0.11068763
Ti       4.56972292       1.61465388       1.51489646       0.04070359      -0.88934294       0.13195336       0.07638826       0.56080861      -0.42764589
Ti       2.97647712      -0.02156556       3.05646333       0.44107692      -0.99298122      -0.04169274      -0.11509271      -0.52214852       0.14566258
Ti       4.54220935       1.59477946       4.60548578       0.18292138      -0.73746729      -0.29416807      -0.18485927      -0.27263295       0.20176160
Ti       3.12378481       0.00903830       6.11702410      -0.00694072      -1.01869680       0.10806917       0.49415820       0.29772387      -0.10454366
Ti       4.60176296       1.50868898       7.70518301       0.20665841      -0.32066071      -0.02574051      -0.27641586       0.02269675       0.43210078
Ti       3.04372613       3.11489010       0.01122879       0.08660346      -0.26811962      -0.05320073       0.12601736      -0.01320671       0.36134421
Ti       4.56181059       4.64155838       1.56660028       0.20279835      -0.20225338      -0.08961339      -0.09103390      -0.08513692      -0.52299982
Ti       3.06593170       3.11948080       3.04700216      -0.21306976      -0.19760607       0.09453321       0.09299054      -0.09992264      -0.09887649
Ti       4.54261569       4.59689467       4.59047563       0.09095234       0.15767604      -0.17621677      -0.08971211       0.09022102       0.50955267
Ti       3.16598752       3.11075191       6.16268980      -0.34589285      -0.33948771      -0.00741657       0.20776468       0.77921530      -0.34014868
Ti       4.59909228       4.56013944       7.65218098       0.39981218       0.14099531       0.09689050       0.25198112       0.33718820       0.08037355
Ti       3.14818842       6.08482044      -0.02976679      -0.33473691       0.77177436      -0.02584128       0.21880683      -0.51623965      -0.00955164
Ti       4.68040331       7.67333427       1.50360611      -0.63167050       1.07266540       0.17367303      -0.31107217       0.01818443       0.51525865
Ti       3.07724048       6.04143620       3.02922338      -0.35032651       0.99967684       0.24765837      -0.04048003      -0.09465032       0.46079656
Ti       4.71928617       7.69039447       4.59256767      -0.67521659       0.90132336      -0.17113279      -0.29052725       0.21419295      -0.08492231
Ti       3.11231777       6.09449468       6.15586967      -0.14660501       0.48948917      -0.15083816       0.16890339      -0.28059983      -0.49323643
Ti       4.69443683       7.58992179       7.64211312      -0.36310145       1.32231772      -0.01010119      -0.58407891       0.16345244      -0.51292973
Ti       6.09460778       0.00895339      -0.05284844      -0.00638474      -0.62823422       0.28376909       0.61567386       0.92686628       0.23862949
Ti       7.72458632       1.52832545       1.58185142      -0.25254693      -0.33182944       0.01745993       0.74919977       0.44099988      -0.50611158
Ti       6.18556033      -0.05308281       3.13049113      -0.15421789      -0.42690156      -0.33863542       0.82243250      -0.22708494      -0.21711564
Ti       7.63798738       1.58348096       4.70100008       0.07748520      -0.28575647      -0.38652428       0.89271843       0.52697464       0.38234748
Ti       6.17819224      -0.02612135       6.05378017      -0.10513807      -0.83316268       0.39996951       0.12241054       0.93114860       0.32414232
Ti       7.67802079       1.49746115       7.69867123      -0.14282918      -0.16833170      -0.23706707       1.01937454       0.32412205       0.23083287
Ti       6.16795277       3.04249874       0.02378985       0.15932272       0.10979468       0.06196698       0.48035644      -0.20354995       0.23171858
Ti       7.65955804       4.64333115       1.64447184       0.19883385      -0.48034728      -0.28224952       0.90996531       0.13348108      -0.00573578
Ti       6.07096560       3.10571758       3.06313443       0.12699662      -0.34575384      -0.11259389       0.50838448       1.12906307      -0.38051561
Ti       7.65623797       4.46761575       4.61800591      -0.01656847       0.48758742      -0.17011574       0.99441346       0.71200477       0.50102448
Ti       6.08197165       3.12754027       6.11620811       0.01343294      -0.24385867       0.32926679       0.54886513       0.37598397      -0.55161138
Ti       7.67242478       4.62223436       7.58267420      -0.06140123      -0.10231216       0.26282578       1.07638143       0.76308782      -0.28082211
Ti       6.18221236       6.12650599       0.03803191       0.07811086      -0.03616199      -0.13615248       0.48730818       0.06116576      -0.00393269
Ti       7.59472542       7.62034551       1.39406035       0.43220689       1.27980537       0.63184223       0.58910051       0.70793735      -0.03914931
Ti       6.13656217       6.15915932       3.03924074      -0.01507670       0.27458520       0.11798683       0.18045082       0.34368520       0.35539482
Ti       7.64419843       7.61391904       4.58779549       0.28425127       1.24089347      -0.23390035       1.35752474       0.35006454      -0.27363571
Ti       6.13663544       6.19495278       6.08194399       0.25624525      -0.05137330       0.26847720       0.52368754      -0.25638006      -0.53100146
Ti       7.72475551       7.63850434       7.79614471      -0.05342698       1.11792433      -0.61158298       1.16446579       0.51149905      -0.12429479
54
Lattice="9.494074844243043 1.4658600980731504e-32 3.9181021448533744e-38 -1.4658600980731504e-32 9.494074844243043 7.417391710337645e-39 -3.002280311697912e-38 -0.21082722936910778 9.494074844243043" Properties=species:S:1:pos:R:3:force:R:3:forces:R:3 config_type=FLD_bcc energy_TB=-319.5467785975619 energy=-323.4332514061673 free_energy=-323.4332514061673 pbc="T T T"
Ti      -0.03732476       0.03184262       0.00984665       0.06427712       0.32970374      -0.07216967      -0.70889222      -0.23603856      -0.12819666
Ti       1.56714018       1.54917099       1.59543676       0.05072060       0.17966315      -0.19187572      -0.37324861      -0.45973974       0.23389892
Ti      -0.03226755       0.04006304       3.17785198      -0.09171974      -0.25868705      -0.29744010      -0.58739733      -0.73472620       0.10465002
Ti       1.54306693       1.53808499       4.80070857       0.34283220       0.37174965      -0.28379675      -0.47991946      -0.16980028      -0.29247676
Ti       0.06334927      -0.02454538       6.24065971      -0.33328992       0.18076725       0.50059478      -1.02134313      -1.20322054      -0.01192350
Ti       1.62558963       1.51896456       7.86394769      -0.18286293      -0.15252742       0.23548180      -0.79068949      -0.80251599       0.23393686
Ti      -0.03845596       3.14790744       0.01080257       0.32549531       0.30176069      -0.14437414      -0.75856466      -0.82156602      -0.36380228
Ti       1.56866714       4.74300478       1.64519538      -0.27904465       0.11171282      -0.28381653      -0.45238484       0.24245095       0.34913512
Ti       0.06263575       3.13590547       3.18951206       0.01012156      -0.06605569      -0.14249700      -0.94759701      -0.09984209       0.12819465
Ti       1.63050192       4.67392593       4.88785782      -0.01299648       0.38635804      -0.34642933      -0.22315486      -0.44564121      -0.42537890
Ti       0.00826239       3.18397888       6.35967185       0.03394618       0.02498581       0.08277154      -0.71529371      -0.73064468       0.23448618
Ti       1.56797926       4.79168708       7.90979690      -0.12490493      -0.30078468      -0.34595119      -0.65422526       0.05211927       0.25046903
Ti       0.00929284       6.36756251      -0.02758483      -0.23309622       0.10715853       0.02478035      -1.00731685      -0.05104339      -0.05377801
Ti       1.57690365       7.81801782       1.61512982      -0.24416971       0.34978207      -0.11770057       0.05040063      -0.51360723      -0.19165643
Ti       0.02628063       6.39923631       3.23119831      -0.25381927      -0.60171949      -0.07725870      -1.12882237      -0.81042958      -0.09789051
Ti       1.54467963       7.92689037       4.75194146       0.08895222      -0.03026085      -0.16408083      -0.85280162      -0.05043081      -0.07754819
Ti      -0.03262059       6.37769061       6.25546694       0.03401670      -0.43458748       0.31947666      -1.35017461      -0.71231384       0.14635016
Ti       1.60013330       7.91036246       7.92370178      -0.24406482      -0.47576007      -0.06381711      -0.31918628      -0.51928012       0.38868277
Ti       3.08023178      -0.03766963      -0.02144881       0.14928166       0.69666309       0.11769852      -0.37584000      -0.08394505       0.11068763
Ti       4.75148139       1.61720342       1.58628119      -0.30720722      -0.17955487       0.01342225       0.07638826       0.56080861      -0.42764589