54
Lattice="9.396197783993115 1.4507481382992003e-32 -0.09507414643917012 -1.4507481382992003e-32 9.396197783993115 7.340923754560969e-39 -2.971328968278346e-38 -3.416531346897604e-38 9.396197783993115" Properties=species:S:1:pos:R:3:force:R:3 energy=-315.05350899741603 config_type=FLD_bcc pbc="F F F"
Ti      -0.20807245       0.26530974       0.01592884       1.70287543      -2.05317043       1.06044178
Ti       1.56734836       1.76475151       1.46149079       0.08057982      -1.17275634       0.23223429
Ti       0.02555123      -0.10284566       3.12483723       0.14752001       0.25868173       0.24042656
Ti       1.65821553       1.34801907       4.58928877      -0.34106751       0.51687374      -0.50614186
Ti      -0.10840493       0.12763662       6.13322761      -0.00233498      -0.24475437      -0.04375740
Ti       1.47697143       1.59241347       7.81980562       0.56310574      -0.24320705       0.36845940
Ti       0.07417847       2.93826281       0.07908614       0.63528642       1.11294458      -0.05127956
Ti       1.72388014       4.63077488       1.73539905      -0.60120140       0.21437643      -0.32511643
Ti      -0.00722225       3.15833619       3.08547699      -0.12246321      -0.04937437       1.11074350
Ti       1.55993678       4.57344482       4.59044518       0.02949313       0.39876808       0.46713808
Ti       0.05090273       3.02134416       6.30003427      -0.31300718       0.38817876      -0.69882917
Ti       1.51881851       4.51992272       7.65870725       0.09069954       0.50946000       0.47547934
Ti       0.14627447       6.14139995       0.20179041       0.24479243       0.48922031      -1.04127576
Ti       1.55759073       7.95827982       1.62151168      -0.39482118      -0.12809670      -0.57655647
Ti      -0.09198863       6.30746787       3.09943423       0.65320701      -0.27018689       0.35666760
Ti       1.75224293       7.78692318       4.76220592      -0.78925020      -0.09733258      -0.53717991
Ti      -0.00333912       6.23704902       6.13612219       0.76537498      -0.09961593       0.45016686
Ti       1.73162283       7.92804527       7.77323049      -1.38927342      -0.25660663       0.56648009
Ti       3.23050320      -0.13591549      -0.04112275      -0.54737216       0.59727476       0.22985664
Ti       4.77273842       1.46314526       1.57268646      -0.16127515       0.24567659      -0.08824747
Ti       3.27994744      -0.19412996       3.09180392      -0.19648809       0.45259778       0.00404988
Ti       4.73625687       1.49268527       4.77353057       0.39769356       0.30469544      -0.44240390
Ti       3.00928402       0.10032001       6.23364625       0.65511242      -0.21307323       0.30208521
Ti       4.55337995       1.49103698       7.84236161       0.87038749       0.52550256       0.11730635
Ti       3.15399761       3.10113812       0.08085704       0.14887019       0.11749160      -0.69111542
Ti       4.58809156       4.76513180       1.56413508       0.45457186      -0.52700367       0.01771035
Ti       3.10330372       3.10125191       3.17159581       0.64673300      -0.05761973       0.17651127
Ti       4.82831266       4.74369344       4.75672861      -0.66900024      -0.37007928      -0.34287752
Ti       3.10801818       2.98080540       6.21538000       0.13895220       0.45437481      -0.16823046
Ti       4.78256959       4.69044596       7.79432006      -0.49035717      -0.21639194       0.63859208
Ti       3.12833766       6.31559775       0.01514757      -0.61593011      -0.22852445      -0.38809515
Ti       4.68119440       7.90021623       1.60391090       0.51199283      -0.33213383      -0.04856742
Ti       3.20738445       6.16476144       3.05671396       0.00024809       0.42696077       0.62036443
Ti       4.66940841       7.83022836       4.76516364       0.06858725       0.17960504      -0.54322764
Ti       3.13452318       6.32835718       6.32455292      -0.13929201      -0.93909692      -0.09809778
Ti       4.63148456       7.68598595       7.93139623       0.62204507       0.55698556      -0.12484380
Ti       6.36922667       0.06170703       0.06561665      -0.51079255      -0.61430885      -0.84619441
Ti       7.91832235       1.69862738       1.58133289      -0.19282065       0.05063191       0.44835597
Ti       6.33956941       0.10343882       3.02041246      -0.01927151      -0.46429821       0.68853339
Ti       7.79121096       1.42722593       4.77724031       0.17420360       0.19511029      -0.23292554
Ti       6.19159241       0.00657225       6.28960985       0.46179990      -0.64645071       0.64473795
Ti       7.96784108       1.50258830       7.89576698      -1.75200638       1.09914455      -1.71104906
Ti       6.31817942       3.07987751       0.08958427      -0.70213091       0.39522892      -0.73440441
Ti       7.90162933       4.63690320       1.47160525      -0.16420799      -0.07029445      -0.03354813
Ti       6.32865742       3.13392444       3.06387934      -0.33631973       0.07223567       0.69700201
Ti       7.61068315       4.90436401       4.75301496       0.91105114      -0.94027913      -0.77648871
Ti       6.23901017       3.35443139       6.23042311       0.22746677      -1.03008177       0.41408151
Ti       7.95580639       4.71575451       7.72917692      -0.23216945       0.19830954       0.82806758
Ti       6.27046300       6.11830275       0.14079940       0.31147921       0.28812805      -0.73196708
Ti       7.86342104       7.78813572       1.47632422       0.08209436      -0.11580627      -0.28586890
Ti       6.28313961       6.25278626       3.12686162      -0.20021338       0.12279256      -0.30698678
Ti       7.92364764       7.74947219       4.62551690      -0.73727771       0.72484700       0.00488458
Ti       6.11895926       6.31889018       6.21590210       0.59230228       0.42861729       0.62706139
Ti       8.04638701       7.75228878       7.72223121      -0.56818145       0.05582938       0.58783806
54
Lattice="9.396197783993115 1.4507481382992003e-32 3.8777093392363294e-38 -0.08582410057511945 9.396197783993115 7.340923754560969e-39 -2.971328968278346e-38 -3.416531346897604e-38 9.396197783993115" Properties=species:S:1:pos:R:3:force:R:3 energy=-314.9289238699389 config_type=FLD_bcc pbc="F F F"
Ti       0.24134144      -0.01937820       0.24714112      -0.39413513       0.09540011      -0.37988494
Ti       1.48729602       1.39645466       1.57553198       0.35638272       0.97897654      -0.49598352
Ti       0.08798179      -0.12713290       3.06467068      -0.92060136       0.04310818       0.55040040
Ti       1.42125393       1.48604288       4.71450641       0.53223023       0.82316714      -0.51750233
Ti      -0.22841487       0.11977280       6.28560984       0.28030878      -0.00610787       0.28743749
Ti       1.37317378       1.53695644       7.86781342       1.00228971       0.21535717       0.05799193
Ti      -0.08024736       3.17787473       0.09333514      -0.15049786      -0.51090169       0.06258002
Ti       1.49981812       4.70695730       1.46389608       0.62958449       0.20656441       0.53707462
Ti      -0.05060694       3.26069003       3.05098172       0.02118960      -0.77420112       0.15261732
Ti       1.55822462       4.55302629       4.65344656       0.60408692       0.12018288      -0.66252252
Ti       0.08559063       3.15271293       6.20912441      -0.19418923      -0.42087720       0.65420468
Ti       1.53281012       4.69706576       7.94240653       0.21434263       0.03556493      -0.06466933
Ti      -0.05864614       6.16196852      -0.06381913      -0.02585631       0.63686054       0.56258017
Ti       1.53445797       7.92645487       1.69434912       0.25751395      -1.13604126      -0.48079997
Ti      -0.00350987       6.13121555       3.34697654      -0.12072137       0.74265646      -1.20502834
Ti       1.52605754       7.92084748       4.72020637       0.00306857      -0.36730563       0.27736408
Ti       0.01975829       6.28193605       6.14276324       0.46307779      -0.29928274       0.72771083
Ti       1.37250134       7.73653646       7.82421479       0.84525273       0.26963615      -0.02236526
Ti       3.28118846       0.11924104      -0.05558404      -0.75080844      -0.91745234      -0.04230143
Ti       4.72553287       1.44907114       1.47862240      -0.23642319       0.36433473       0.08178281
Ti       3.01319019       0.09628276       3.06577016       0.56462053       0.00461636       0.73580854
Ti       4.56606488       1.58847566       4.83969478       0.67436414       0.09508130      -0.24898313
Ti       3.11219705       0.00054143       6.14645441      -0.24232889      -0.12098077       0.79999120
Ti       4.58265793       1.53702619       7.77624949       0.54452822       0.19770610      -0.25314479
Ti       3.28883764       3.21003967      -0.05730869      -0.93925520      -0.49389585       0.21886002
Ti       4.92326010       4.62179056       1.42758169      -0.18584424       0.57094129       0.52370470
Ti       3.29411577       3.14392615       3.05252073      -0.59848819      -0.07978292       0.15003177
Ti       4.72892479       4.81674114       4.78300905      -0.45995660      -0.52557650      -0.48144179
Ti       3.11211544       3.14972103       6.29951774      -0.71177832      -0.38169458      -0.18355118
Ti       4.62520371       4.77332908       7.63591646       0.40058833      -0.02883352       0.02260448
Ti       3.27343609       6.20173736      -0.08372758      -0.53655437       0.75299724       0.68560763
Ti       4.72342183       7.87660479       1.80795090      -0.15145670      -0.28390250      -0.95592631
Ti       3.14603493       6.33886194       3.16339012      -0.01315181      -0.56535685      -0.38517889
Ti       4.60404390       7.83839534       4.71550595      -0.10138724      -0.09812767      -0.44057639
Ti       3.08783440       6.11387843       6.31164057      -0.31623470       0.88238141       0.00984244
Ti       4.78783009       7.81591051       7.86625641      -0.59139961      -0.09754951      -0.50918952
Ti       6.14982143      -0.10674588      -0.11551350       0.54013360       0.01530284       0.21003504
Ti       7.71432395       1.43393567       1.67095095       0.10542569       0.38440759      -0.18729124
Ti       6.26171625       0.11249497       3.06562646       0.16838430       0.00539810       0.68020668
Ti       7.78533119       1.52689113       4.84613271      -0.12530222       0.28767912      -0.74315415
Ti       6.21355171      -0.18246847       6.32966145       0.12391747       0.91152154       0.07644557
Ti       7.94343495       1.50596919       7.75978187      -0.55489364       0.02368986       0.39552106
Ti       6.10390807       3.18126862       0.07928272       0.36656604      -0.45084162      -0.76550577
Ti       7.83979884       4.59826146       1.42416838      -0.35754128       0.63415040       0.63710885
Ti       6.19790028       3.17217506       3.15801554       0.19579034      -0.61451081       0.22509507
Ti       7.86904899       4.69275804       4.85929663       0.15275753      -0.23354112      -0.65103397
Ti       6.39857656       3.29921655       6.25715132      -0.59703036      -0.97701961       0.24745902
Ti       7.77001762       4.68963510       7.87011293       0.28135987      -0.14289863      -0.33240116
Ti       6.25550377       6.25485820      -0.21690805       0.13836820       0.52727930       1.09813500
Ti       7.74799562       7.98836790       1.61421689       0.07049252      -1.19867007      -0.34415593
Ti       6.26025697       6.27387665       3.22264739       0.17855455      -0.09220524      -0.55813237
Ti       7.67974654       7.77970780       4.83462723       0.04551624       0.09685658      -0.75549279
Ti       6.42662133       6.24003516       6.04190019      -0.43551835       0.73176962       0.71867478
Ti       7.90042510       7.80172621       7.83814193      -0.04934107       0.16396971       0.27934084
54
Lattice="9.396197783993115 -0.05655897427866985 3.8777093392363294e-38 -1.4507481382992003e-32 9.396197783993115 7.340923754560969e-39 -2.971328968278346e-38 -3.416531346897604e-38 9.396197783993115" Properties=species:S:1:pos:R:3:force:R:3 energy=-315.87127919696024 config_type=FLD_bcc pbc="F F F"
Ti       0.07140845      -0.06253448      -0.17122251      -0.10580468       0.15890264       0.84493947
Ti       1.65269465       1.78764891       1.41269025      -0.32190919      -0.76821885       0.42183172
Ti       0.06072708       0.04146736       3.15107687      -0.14917473       0.64661381      -0.43168161
Ti       1.45634097       1.61664764       4.85895390       0.21330858      -0.05314410      -0.42725140
Ti       0.21695685      -0.13488178       6.33042780      -0.67774646       0.40874340       0.00659537
Ti       1.55265782       1.51190298       7.84636250      -0.01153676       0.11522336      -0.25886789
Ti       0.06501818       3.18625353       0.07986958      -0.41162144       0.38267754       0.22867714
Ti       1.57494829       4.66209365       1.24716262      -0.15620563      -0.00264187       1.45513195
Ti       0.01227630       3.15115053       3.23698930      -0.02037524       0.23291016      -1.13145773
Ti       1.61901301       4.54461468       4.55274677       0.01634656       0.67737444       0.17101314
Ti       0.01912793       3.11873750       6.16858024      -0.00011503       0.79907924       0.02909966
Ti       1.56564835       4.78131457       7.84568223      -0.03639062      -0.02196923      -0.02919097
Ti      -0.09871491       6.13083589      -0.10689026      -0.19215858       0.46097378       0.26039253
Ti       1.56619138       7.90394674       1.67503698       0.01351909      -0.31118464      -0.59393449
Ti      -0.00723085       6.29632208       3.19363756       0.40179539      -0.32773228      -0.45663606
Ti       1.53091359       7.89057562       4.49065937       0.34997699      -0.49148227       0.32283445
Ti       0.06191354       6.26666926       6.39000187      -0.17526467      -0.13356708      -1.19448123
Ti       1.64588019       7.66967105       7.88437399       0.07066453       0.12013120       0.19630829
Ti       3.18347100       0.02730328      -0.11133871      -0.19620351      -0.01112457       0.52204214
Ti       4.74163052       1.53814086       1.44571113       0.27893809      -0.43366011       0.35856800
Ti       3.09460040       0.15307973       3.14082381       0.18078700      -0.20296294      -0.23389936
Ti       4.69395586       1.59702496       4.80949676       0.32819910      -0.34390747      -0.43128065
Ti       3.08361008       0.00106490       6.16988077      -0.03444902      -0.35474299      -0.11703436
Ti       4.62400195       1.54061043       7.70355686       0.45804626      -0.23630080      -0.28169932
Ti       3.07526973       3.01944187      -0.12701682       0.50871164       0.14340167       0.00387686
Ti       4.82352633       4.49213869       1.56289315      -0.38244451       0.53340152       0.11026908
Ti       3.21211554       2.97103897       3.18282909      -0.03919575       0.29177167      -0.18548001
Ti       4.70406292       4.55914842       4.80403657       0.03773082       0.79107446      -0.46760610
Ti       3.07408448       3.23877417       6.25890549       0.00630187      -0.08760392       0.32167164
Ti       4.68088899       4.65648630       7.82674355       0.57861590       0.11840126      -0.17786870
Ti       3.24733152       6.24369328       0.08141460       0.14519555      -0.12944273       0.44573244
Ti       4.67883007       7.78866609       1.45923103       0.07268084       0.79236773       0.77711025
Ti       3.11202452       6.24110011       3.10753789       0.08901189      -0.49108639      -0.41285300
Ti       4.67252687       7.74229588       4.63889301      -0.11779055       0.44314585      -0.18794448
Ti       3.12295333       6.24036842       6.28659695      -0.10381408      -0.32208414      -0.72099169
Ti       4.51809719       7.86433915       7.74483531       0.76099768      -0.23771098       0.12269201
Ti       6.27006418      -0.07725451      -0.13302222       0.31405197       0.22940311       0.00122172
Ti       7.86056586       1.41630210       1.55846012      -0.01884138      -0.03436055      -0.22746152
Ti       6.47139111       0.01768616       3.21074085      -0.84564366       0.01827485      -0.46589896
Ti       7.89157103       1.72346028       4.79015887      -0.23395092      -0.97634211      -0.13813698
Ti       6.26499236      -0.19936474       6.14717985      -0.07019615       1.09112193       0.40295984
Ti       8.07176857       1.66133419       7.83598005      -0.69134346      -1.19721974      -0.06723760
Ti       6.24706492       2.96793993      -0.05503434       0.36328361       0.04830114      -0.08037296
Ti       7.66785262       4.74686077       1.52476021       0.40758336      -0.05046804       0.27352230
Ti       6.27912163       3.13876586       3.05127206      -0.11153251      -0.39601500       0.08706088
Ti       7.78122176       4.75215920       4.53602134       0.31890185       0.02468766       0.52346642
Ti       6.40443484       2.99535430       6.17267379       0.06914892       0.15126043       0.37285886
Ti       7.79529433       4.55805812       7.63458273      -0.31717666       0.35349013       0.59811138
Ti       6.19934843       6.28221719       0.05020038       0.10092475      -0.21338716      -0.71376130
Ti       7.89357239       7.74921328       1.56698321      -0.02495250       0.42918629      -0.37865829
Ti       6.24637321       6.42590446       3.19816488      -0.55220198      -0.76555938      -0.35285344
Ti       7.79222807       7.91647457       4.63943034       0.57173183      -0.17365046       0.63585443
Ti       6.33754235       6.35055072       6.18327156      -0.38644048      -0.44474578       0.40982945
Ti       7.90339745       7.86050108       7.71164378      -0.27197393      -0.24960369       0.26086867
54
Lattice="9.396197783993115 1.4507481382992003e-32 3.8777093392363294e-38 0.13470271351483423 9.396197783993115 7.340923754560969e-39 -2.971328968278346e-38 -3.416531346897604e-38 9.396197783993115" Properties=species:S:1:pos:R:3:force:R:3 energy=-315.03177280610254 config_type=FLD_bcc pbc="F F F"
Ti       0.02770259      -0.04190406       0.00588705      -0.86619664       0.15983800      -0.17188978
Ti       1.50400003       1.56158661       1.50149996       0.64242369       0.14561737       0.08863297
Ti       0.00007885       0.18745393       3.37017683       1.85589063      -1.57536312      -2.43413264
Ti       1.74569669       1.67586473       4.72458039       0.35071997      -0.32959741      -0.00178697
Ti       0.00748692       0.05976702       6.20215689       0.46638199       0.02539697       0.50995489
Ti       1.66461668       1.54799701       7.70417160      -0.02579788       0.04865370       0.73643643
Ti       0.02474391       3.20932372       0.03147218       0.26462209       0.41375513       0.03232820
Ti       1.69802359       4.82823495       1.59274681      -0.05029957      -0.09043001      -0.61247172
Ti       0.15165616       3.04910559       2.97023920       0.02245513       0.48140920       0.01133646
Ti       1.48053911       4.65438164       4.69023060       0.14055878      -0.09965669      -0.08815296
Ti      -0.06569730       2.85699321       6.25122275       0.25196884       0.57604837       0.15037397
Ti       1.45445271       4.65102436       7.78174531       0.05199290       0.04277363       0.48622197
Ti      -0.05935430       6.24953591       0.04747356      -0.70037816      -0.03614794      -0.02069837
Ti       1.38626279       7.85198389       1.58913798       0.57449377       0.31051920       0.29119877
Ti       0.09903100       6.18350203       3.15254231      -0.64461655      -0.07133867      -0.18883659
Ti       1.56407955       7.80304775       4.64861940       0.52854844       0.13137811       0.12375572
Ti       0.02994992       6.15644621       6.21856911       0.05609322       0.69175878       0.15056909
Ti       1.67671104       7.79701104       7.96317488      -0.59356080      -0.31868072      -0.55892968
Ti       3.09368778      -0.02350120      -0.02801070      -0.13785421       0.23488655       0.97325420
Ti       4.69287295       1.72218352       1.72186923       0.02698814      -0.96328684      -0.60613974
Ti       3.15140976       0.05991114       3.10910606      -0.25611791      -0.34668814      -0.21060876
Ti       4.86548982       1.64580524       4.69088709      -0.91770519      -0.67589147       0.12405818
Ti       3.12098908      -0.20927771       6.24251961       0.40850916       0.46185600      -0.33938739
Ti       4.57905536       1.56925123       7.92273920       0.43813693      -0.12498786      -0.92700477
Ti       3.26162641       3.15237167      -0.10319082      -0.49865216      -0.22198730       0.20199440
Ti       4.79537834       4.63493714       1.60363697      -0.46154179       0.80506417      -0.57750946
Ti       3.29643430       3.33117614       3.11678939      -0.49644379      -0.64425163       0.03749592
Ti       4.74793887       4.72287249       4.72102567      -0.38393831       0.38706781       0.22973823
Ti       3.01853791       3.23612479       6.25587836       0.69597528      -0.09532034       0.35325905
Ti       4.82342214       4.69846341       7.81149425      -0.55739030       0.36838948      -0.42395404
Ti       3.12877565       6.43607249      -0.02898192      -0.06784188      -0.80165396       0.17641475
Ti       4.66857932       7.53686312       1.47812127       0.85227425       1.28173373       0.15486751
Ti       3.19444715       6.35638664       3.17093422      -0.53052903      -0.19269996      -0.15172892
Ti       4.80199858       7.83201000       4.45580799      -0.37894015       0.01555646       0.87457012
Ti       3.02020122       6.21875117       6.28929766       0.50887028       0.10361316      -0.20190054
Ti       4.65221712       7.78665737       7.91311906       0.87562913       0.40644562      -0.58284505
Ti       6.39523721       0.12141009      -0.02644631      -0.48046438      -0.53456533       0.16003518
Ti       7.87643103       1.75728590       1.62820759      -0.05057911      -0.91174307      -0.49468744
Ti       6.37875359      -0.15690715       3.22552135      -0.47264711       0.39473715      -1.08695392
Ti       8.00276130       1.46047327       4.54098240      -2.59616411       1.99164589       1.45392539
Ti       6.32763344       0.00488958       6.15819828      -0.60300079       0.26851887       0.79701477
Ti       7.84567278       1.74689358       7.90899728      -0.19845297      -0.61903678      -0.17560471
Ti       6.21135430       3.16421668      -0.02600958       0.11523057      -0.27910916       0.29999666
Ti       7.71538435       4.55909813       1.70785783       0.49664910       0.71947339      -0.68976331
Ti       6.14367019       3.11490339       3.13302561       0.48417462      -0.02238104       0.42151303
Ti       7.89619282       4.68663150       4.76158371       0.18420748      -0.42611735      -0.49925801
Ti       6.25122704       3.24649870       6.08843036       0.27076884      -0.79664923       0.45200789
Ti       7.76909221       4.63616083       7.62584246       0.24237154       0.13482475       0.57223561
Ti       6.20241930       6.26551836      -0.22755764       1.00357917       0.17944043       0.46261419
Ti       7.74513850       7.83413921       1.73985628       0.39854358       0.10352361      -0.74802693
Ti       6.36020067       6.26206235       3.18449400       0.12326923      -0.02923496       0.18656296
Ti       7.96164288       8.02297602       4.66379216      -0.02108127      -1.11360961       0.19243445
Ti       6.25288541       6.21730072       6.11866132       0.21668363       0.79557676       0.37710563
Ti       8.01177664       7.97200388       7.57622532      -0.55781631      -0.35907374       0.71036509
54
Lattice="9.396197783993115 1.4507481382992003e-32 0.16706491551738054 -1.4507481382992003e-32 9.396197783993115 7.340923754560969e-39 -2.971328968278346e-38 -3.416531346897604e-38 9.396197783993115" Properties=species:S:1:pos:R:3:force:R:3 energy=-314.752795955138 config_type=FLD_bcc pbc="F F F"
Ti      -0.08275375      -0.10708029       0.08522929       0.30259081      -0.00786963      -0.01402836
Ti       1.52792192       1.53580683       1.49077950       0.76464778      -0.24130231       0.38759626
Ti      -0.00479727      -0.15827951       3.11710552       0.21444891       0.69411709      -0.17283136
Ti       1.42601913       1.63590585       4.69790163       0.51170898      -0.30121251       0.08162411
Ti      -0.00899701       0.14094028       6.28542560      -0.04436759      -0.11666917      -0.77281898
Ti       1.60764448       1.39699452       7.89600359      -0.02213720       0.87306331       0.02394953
Ti      -0.15525300       3.04695181       0.07189714       0.74598343       0.27672107      -0.59103482
Ti       1.39265337       4.70177943       1.70310272       0.95416038      -0.17051305      -0.34728306
Ti       0.02783593       3.05682542       3.04601832       0.10081148       0.51904105       0.26206256
Ti       1.67863017       4.87941623       4.61283717      -0.30208071      -1.20146817       0.91246739
Ti       0.05194675       3.24957541       6.32004264       0.44726773      -0.40732513      -0.78956929
Ti       1.46772855       4.61129698       7.93008507       0.48353344       0.56134102      -0.16000890
Ti       0.03118259       6.20127031       0.03566001       0.06305807       0.46277562      -0.36696900
Ti       1.56621906       7.75250268       1.67473116       0.08384119       0.17140293      -0.02305177
Ti       0.01096077       6.12421655       3.13509543      -0.69611625       0.23570638      -0.80160598
Ti       1.43174933       7.71775725       4.80115852       0.38650266       0.43285967      -0.19322921
Ti      -0.17150094       6.34760739       6.31086286       0.65798861      -0.45956877      -0.07173342
Ti       1.52540599       7.83798519       7.75784263       0.10334235      -0.11918169       0.34663369
Ti       3.04361062      -0.10240581      -0.04103868       0.13379784       0.35575872       0.00279565
Ti       4.73616061       1.53615709       1.68359447      -0.56457563      -0.19492090      -0.70292639
Ti       3.09093042      -0.15402914       3.21216037      -0.22300484       0.79337336      -0.21836242
Ti       4.63228222       1.66440146       4.61571430       0.30928926      -0.45670167       0.18067917
Ti       3.22248899       0.01557520       6.24477937      -0.93025506      -0.05063030      -0.46299331
Ti       4.67593543       1.54927332       7.71602772       0.13778798       0.02591912       1.18183169
Ti       3.06487321       3.34326689      -0.06456978      -0.16364222      -0.91522910       0.21229556
Ti       4.62504676       4.71647147       1.41949028       0.73972647      -0.45509567       0.66640013
Ti       3.18142949       3.12721675       3.23455238      -0.56710777      -0.02365399      -0.76003047
Ti       4.69717747       4.69640647       4.64851443       0.18424627      -0.22859903       0.58003054
Ti       3.26180670       3.11968369       6.39205783      -0.99908849       0.19333611      -0.34566059
Ti       4.74989750       4.77272154       7.80958213      -0.14772613      -0.11042066       0.23873813
Ti       3.28098880       6.35040159       0.15695893      -1.39788861      -0.70416334      -0.88820832
Ti       4.54832103       7.82104979       1.33486545       1.01096872       0.20285647       1.21407264
Ti       3.22152698       6.18342320       3.21686486      -0.43434057       0.27339906      -0.51702107
Ti       4.56388256       7.72018265       4.72205574       0.95920253       0.38502890      -0.04639413
Ti       3.19529024       6.39238705       6.25171727      -0.36870250      -0.41955943       0.17768428
Ti       4.59887041       7.76194111       7.63617402       0.40697335       0.07316808       0.63091202
Ti       6.34758424      -0.17682888      -0.03123278      -0.36502528       0.99346935      -0.25348483
Ti       7.90355895       1.73519675       1.52871877      -0.88361454      -1.23145508       0.95884589
Ti       6.17112201       0.00934250       3.07991035       0.02484755      -0.21904374      -0.20127887
Ti       7.84922110       1.50552600       4.64032713      -0.17756789       0.14530792       0.84856669
Ti       6.11336638       0.01528527       6.38502123       0.70241785       0.11233843      -0.78680088
Ti       7.85538484       1.70775867       7.78880332      -0.63957808      -0.79758686       0.20294949
Ti       6.34710944       3.15726508       0.03989591      -0.61529263      -0.07914725      -0.36909245
Ti       7.61966686       4.60901323       1.45516493       0.36478457       0.07665464       0.75499704
Ti       6.23773697       3.12083098       3.20939599       0.12168204       0.10216090      -0.29440819
Ti       7.93040258       4.79839609       4.67008706      -0.35429476      -0.48025737       0.61396600
Ti       6.17426715       3.15331291       6.36435170       0.73485793       0.13091279      -0.79756363
Ti       7.92468768       4.77152185       7.84449458      -0.22398686      -0.46327788       0.08741936
Ti       6.34850193       6.14509614      -0.10062129      -0.30682657       1.07895418      -0.07189213
Ti       7.85762384       7.90324298       1.45590806       0.00284919      -0.29075760       0.31245966
Ti       6.34721007       6.17755123       3.13686453      -0.52951882       0.55922341      -0.60425723
Ti       7.80292450       7.70049426       4.64987329      -0.61950525       0.90747063       0.37839366
Ti       6.23247004       6.22304423       6.18985365       0.57862934       0.21507052       0.12185582
Ti       7.97711961       8.02839833       7.87099367      -0.65570246      -0.70582043       0.24531210
54