2
Lattice="3.0668145544977525 4.7350807291710006e-33 1.265641242667413e-38 -4.7350807291710006e-33 2.6836081825430886 2.395995947669205e-39 -9.698087604797378e-39 -1.1151178701679679e-38 3.0668145544977525" Properties=species:S:1:pos:R:3:force:R:3:forces:R:3 virial="9.002551164752951 0.3117218568465391 0.17880444543321947 0.3117218568465391 8.191029393379171 -0.25325254051823876 0.17880444543321947 -0.25325254051823876 9.546159160040009" config_type=FLD_bcc energy_TB=-10.496183738505932 energy=-9.116848085727012 stress="0.03102369575568801 0.10995716294922882 0.27107941423625453 0.10995716294922882 0.04454225141931396 -0.22718518148842193 0.27107941423625453 -0.22718518148842193 -0.5469060026234868" free_energy=-9.116848085727012 pbc="T T T"
Ti       0.06455907      -0.04226509       0.11693021      -0.37236004       0.15468611       0.19248413      -6.16177221       5.29216688      15.95387337
Ti       1.40116416       1.35476980       1.69872205       0.37236004      -0.15468611      -0.19248413       6.16177221      -5.29216688     -15.95387337
2
Lattice="3.0668145544977525 4.7350807291710006e-33 -0.38530947577090396 -4.7350807291710006e-33 3.0668145544977525 2.395995947669205e-39 -9.698087604797378e-39 -1.1151178701679679e-38 3.0668145544977525" Properties=species:S:1:pos:R:3:force:R:3:forces:R:3 virial="3.8687755835429005 -2.1761654811965547 2.2456942785517002 -2.1761654811965547 9.86531329736988 -3.4006567810778057 2.2456942785517002 -3.4006567810778057 8.805739717273443" config_type=FLD_bcc energy_TB=-10.47190281451671 energy=-9.116848085727012 stress="0.03102369575568801 0.10995716294922882 0.27107941423625453 0.10995716294922882 0.04454225141931396 -0.22718518148842193 0.27107941423625453 -0.22718518148842193 -0.5469060026234868" free_energy=-9.116848085727012 pbc="T T T"
Ti       0.67660645       0.21819533       0.12234715      -3.94496767       2.75663027      -2.11171365      -6.16177221       5.29216688      15.95387337
Ti       1.56217292       1.82651308       1.49605191       3.94496767      -2.75663027       2.11171365       6.16177221      -5.29216688     -15.95387337
2
Lattice="3.0668145544977525 4.7350807291710006e-33 1.265641242667413e-38 -0.27013872582705467 3.0668145544977525 2.395995947669205e-39 -9.698087604797378e-39 -1.1151178701679679e-38 3.0668145544977525" Properties=species:S:1:pos:R:3:force:R:3:forces:R:3 virial="4.820290181498417 -0.06140224916266328 0.6511756318609084 -0.06140224916266328 4.951608199329436 0.8097729874527546 0.6511756318609084 0.8097729874527546 4.362641607417327" config_type=FLD_bcc energy_TB=-11.051096348786176 energy=-9.116848085727012 stress="0.03102369575568801 0.10995716294922882 0.27107941423625453 0.10995716294922882 0.04454225141931396 -0.22718518148842193 0.27107941423625453 -0.22718518148842193 -0.5469060026234868" free_energy=-9.116848085727012 pbc="T T T"
Ti      -0.20065439      -0.15545004       0.09404618       2.03019921      -0.62455015      -0.55243931      -6.16177221       5.29216688      15.95387337
Ti       1.59372297       1.33420628       1.43877834      -2.03019921       0.62455015       0.55243931       6.16177221      -5.29216688     -15.95387337
2
Lattice="3.0668145544977525 4.7350807291710006e-33 1.265641242667413e-38 -4.7350807291710006e-33 3.146288903954288 2.395995947669205e-39 -9.698087604797378e-39 -1.1151178701679679e-38 3.0668145544977525" Properties=species:S:1:pos:R:3:force:R:3:forces:R:3 virial="4.009527324824141 0.009017489194332075 -0.040626458463090355 0.009017489194332075 4.073365886814971 -0.013390731788922361 -0.040626458463090355 -0.013390731788922361 3.9666834080177122" config_type=FLD_bcc energy_TB=-11.48457493125148 energy=-9.116848085727012 stress="0.03102369575568801 0.10995716294922882 0.27107941423625453 0.10995716294922882 0.04454225141931396 -0.22718518148842193 0.27107941423625453 -0.22718518148842193 -0.5469060026234868" free_energy=-9.116848085727012 pbc="T T T"
Ti       0.12322733       0.21363946       0.06913654      -1.09299293      -0.84193160      -0.06190832      -6.16177221       5.29216688      15.95387337
Ti       1.50401221       1.55913037       1.59201665       1.09299293       0.84193160       0.06190832       6.16177221      -5.29216688     -15.95387337
2
Lattice="3.0668145544977525 4.7350807291710006e-33 0.017931378272564857 -4.7350807291710006e-33 3.0668145544977525 2.395995947669205e-39 -9.698087604797378e-39 -1.1151178701679679e-38 3.0668145544977525" Properties=species:S:1:pos:R:3:force:R:3:forces:R:3 virial="6.044341802300604 1.8006626982679028 1.1807521833679608 1.8006626982679028 8.026609930802696 2.2097833590394655 1.1807521833679608 2.2097833590394655 6.7330504560443645" config_type=FLD_bcc energy_TB=-10.822655029864533 energy=-9.116848085727012 stress="0.03102369575568801 0.10995716294922882 0.27107941423625453 0.10995716294922882 0.04454225141931396 -0.22718518148842193 0.27107941423625453 -0.22718518148842193 -0.5469060026234868" free_energy=-9.116848085727012 pbc="T T T"
Ti       0.28600334      -0.25583953       0.23440505      -3.81262136      -2.58882587      -2.99504485      -6.16177221       5.29216688      15.95387337
Ti       1.41703450       1.15223712       1.50126452       3.81262136       2.58882587       2.99504485       6.16177221      -5.29216688     -15.95387337
2
Lattice="3.233762943278675 4.7350807291710006e-33 1.265641242667413e-38 -4.7350807291710006e-33 3.0668145544977525 2.395995947669205e-39 -9.698087604797378e-39 -1.1151178701679679e-38 3.0668145544977525" Properties=species:S:1:pos:R:3:force:R:3:forces:R:3 virial="3.083988576787945 0.5837183104569272 0.7496532424871488 0.5837183104569272 3.0698931183769593 -0.6841339603214048 0.7496532424871488 -0.6841339603214048 2.971172918156923" config_type=FLD_bcc energy_TB=-11.366460960246531 energy=-9.116848085727012 stress="0.03102369575568801 0.10995716294922882 0.27107941423625453 0.10995716294922882 0.04454225141931396 -0.22718518148842193 0.27107941423625453 -0.22718518148842193 -0.5469060026234868" free_energy=-9.116848085727012 pbc="T T T"
Ti      -0.11283530      -0.20008286       0.01495419      -0.41848557       1.53595878       0.29432088      -6.16177221       5.29216688      15.95387337
Ti       1.37157937       1.67443255       1.69238102       0.41848557      -1.53595878      -0.29432088       6.16177221      -5.29216688     -15.95387337
2
Lattice="3.0668145544977525 4.7350807291710006e-33 1.265641242667413e-38 0.0028969620934564955 3.0668145544977525 2.395995947669205e-39 -9.698087604797378e-39 -1.1151178701679679e-38 3.0668145544977525" Properties=species:S:1:pos:R:3:force:R:3:forces:R:3 virial="4.5073233396867325 0.6632538921079111 0.7089629610889707 0.6632538921079111 4.549810652268201 -0.7092068932343097 0.7089629610889707 -0.7092068932343097 4.581967782848181" config_type=FLD_bcc energy_TB=-11.295392362526004 energy=-9.116848085727012 stress="0.03102369575568801 0.10995716294922882 0.27107941423625453 0.10995716294922882 0.04454225141931396 -0.22718518148842193 0.27107941423625453 -0.22718518148842193 -0.5469060026234868" free_energy=-9.116848085727012 pbc="T T T"
Ti       0.23247572       0.06101344      -0.19965300       0.81115394      -0.78110321      -0.61112345      -6.16177221       5.29216688      15.95387337
Ti       1.96003328       1.40582871       1.16765163      -0.81115394       0.78110321       0.61112345       6.16177221      -5.29216688     -15.95387337
2
Lattice="3.0668145544977525 4.7350807291710006e-33 1.265641242667413e-38 -4.7350807291710006e-33 2.8472073375968496 2.395995947669205e-39 -9.698087604797378e-39 -1.1151178701679679e-38 3.0668145544977525" Properties=species:S:1:pos:R:3:force:R:3:forces:R:3 virial="6.77895899806719 -0.024405241230866556 -0.031560463516164615 -0.024405241230866556 7.6380192921717605 -0.1045341652280357 -0.031560463516164615 -0.1045341652280357 6.445322641400366" config_type=FLD_bcc energy_TB=-10.976870826088513 energy=-9.116848085727012 stress="0.03102369575568801 0.10995716294922882 0.27107941423625453 0.10995716294922882 0.04454225141931396 -0.22718518148842193 0.27107941423625453 -0.22718518148842193 -0.5469060026234868" free_energy=-9.116848085727012 pbc="T T T"
Ti      -0.07761724       0.12159768       0.29374764       0.16491056      -0.62717356      -0.42615032      -6.16177221       5.29216688      15.95387337
Ti       1.44629136       1.43093256       1.69486584      -0.16491056       0.62717356       0.42615032       6.16177221      -5.29216688     -15.95387337
2
Lattice="3.0668145544977525 4.7350807291710006e-33 1.265641242667413e-38 -4.7350807291710006e-33 3.0668145544977525 2.395995947669205e-39 -9.698087604797378e-39 -1.1151178701679679e-38 3.330915319069468" Properties=species:S:1:pos:R:3:force:R:3:forces:R:3 virial="2.815987182139538 -0.010076152351353226 0.06698002830613566 -0.010076152351353226 1.7504228249666482 0.09647740246491551 0.06698002830613566 0.09647740246491551 3.7593747762848126" config_type=FLD_bcc energy_TB=-11.401255879447342 energy=-9.116848085727012 stress="0.03102369575568801 0.10995716294922882 0.27107941423625453 0.10995716294922882 0.04454225141931396 -0.22718518148842193 0.27107941423625453 -0.22718518148842193 -0.5469060026234868" free_energy=-9.116848085727012 pbc="T T T"
Ti      -0.04321488       0.50100315      -0.48085666       0.07766870      -1.84475124       0.27825334      -6.16177221       5.29216688      15.95387337
Ti       1.51239304       1.61809833       1.24868619      -0.07766870       1.84475124      -0.27825334       6.16177221      -5.29216688     -15.95387337
2
Lattice="3.0668145544977525 4.7350807291710006e-33 1.265641242667413e-38 -4.7350807291710006e-33 3.0668145544977525 0.6025398806070043 -9.698087604797378e-39 -1.1151178701679679e-38 3.0668145544977525" Properties=species:S:1:pos:R:3:force:R:3:forces:R:3 virial="6.278703202489074 -0.8325614454012227 0.5039202174556304 -0.8325614454012227 5.942879342309698 -2.4835081121991296 0.5039202174556304 -2.4835081121991296 5.414641037995666" config_type=FLD_bcc energy_TB=-11.329645480801386 energy=-9.116848085727012 stress="0.03102369575568801 0.10995716294922882 0.27107941423625453 0.10995716294922882 0.04454225141931396 -0.22718518148842193 0.27107941423625453 -0.22718518148842193 -0.5469060026234868" free_energy=-9.116848085727012 pbc="T T T"
Ti       0.17352955       0.13629585      -0.00941515      -1.43650162       1.45081553      -1.00239649      -6.16177221       5.29216688      15.95387337
Ti       1.52386557       1.83232463       1.74980286       1.43650162      -1.45081553       1.00239649       6.16177221      -5.29216688     -15.95387337
2
Lattice="3.1103154701643874 4.802244994833001e-33 1.283593600719433e-38 -0.2565946211730148 3.1103154701643874 2.4299817057921724e-39 -9.83564913110656e-39 -1.1309351449221235e-38 3.1103154701643874" Properties=species:S:1:pos:R:3:force:R:3:forces:R:3 virial="4.3861103338551946 0.4479865663506176 0.19727564539870435 0.4479865663506176 3.7556212036030954 0.22241979223179936 0.19727564539870435 0.22241979223179936 3.388969067383651" config_type=FLD_bcc energy_TB=-11.305772720681727 energy=-9.116848085727012 stress="0.03102369575568801 0.10995716294922882 0.27107941423625453 0.10995716294922882 0.04454225141931396 -0.22718518148842193 0.27107941423625453 -0.22718518148842193 -0.5469060026234868" free_energy=-9.116848085727012 pbc="T T T"
Ti      -0.48765525      -0.12985841       0.08113620       2.15199182      -0.50730284      -0.53266852      -6.16177221       5.29216688      15.95387337
Ti       1.30334243       1.32680472       1.53590193      -2.15199182       0.50730284       0.53266852       6.16177221      -5.29216688     -15.95387337
2
Lattice="3.1103154701643874 4.802244994833001e-33 1.283593600719433e-38 -4.802244994833001e-33 3.1103154701643874 -0.17025050219445198 -9.83564913110656e-39 -1.1309351449221235e-38 3.1103154701643874" Properties=species:S:1:pos:R:3:force:R:3:forces:R:3 virial="3.347731469400664 -0.0730627178221033 0.15183111720595052 -0.0730627178221033 4.12824494083898 0.08582138011574206 0.15183111720595052 0.08582138011574206 3.9936087274589163" config_type=FLD_bcc energy_TB=-11.62324810588485 energy=-9.116848085727012 stress="0.03102369575568801 0.10995716294922882 0.27107941423625453 0.10995716294922882 0.04454225141931396 -0.22718518148842193 0.27107941423625453 -0.22718518148842193 -0.5469060026234868" free_energy=-9.116848085727012 pbc="T T T"
Ti       0.04808286       0.20477402      -0.10276672       0.41741505      -0.62684758       0.37600923      -6.16177221       5.29216688      15.95387337
Ti       1.68349588       1.62100781       1.44223585      -0.41741505       0.62684758      -0.37600923       6.16177221      -5.29216688     -15.95387337
2
Lattice="3.1103154701643874 4.802244994833001e-33 1.283593600719433e-38 -0.29301652968368647 3.1103154701643874 2.4299817057921724e-39 -9.83564913110656e-39 -1.1309351449221235e-38 3.1103154701643874" Properties=species:S:1:pos:R:3:force:R:3:forces:R:3 virial="3.663079151919006 -0.5865220102172543 0.6945858724634814 -0.5865220102172543 3.5183672095401097 0.4327118238087567 0.6945858724634814 0.4327118238087567 3.2298553259184297" config_type=FLD_bcc energy_TB=-11.392923478390758 energy=-9.116848085727012 stress="0.03102369575568801 0.10995716294922882 0.27107941423625453 0.10995716294922882 0.04454225141931396 -0.22718518148842193 0.27107941423625453 -0.22718518148842193 -0.5469060026234868" free_energy=-9.116848085727012 pbc="T T T"
Ti       0.19062931      -0.07187375      -0.22325829       0.92574686      -1.14101365       0.76621960      -6.16177221       5.29216688      15.95387337
Ti       1.67808764       1.21297718       1.54359119      -0.92574686       1.14101365      -0.76621960       6.16177221      -5.29216688     -15.95387337
2
Lattice="3.1103154701643874 4.802244994833001e-33 1.283593600719433e-38 -4.802244994833001e-33 3.1103154701643874 2.4299817057921724e-39 0.36075755699290035 -1.1309351449221235e-38 3.1103154701643874" Properties=species:S:1:pos:R:3:force:R:3:forces:R:3 virial="4.200258078281527 -0.9408084942735192 0.21462366839553587 -0.9408084942735192 4.0750129993013156 0.8569626377777582 0.21462366839553587 0.8569626377777582 3.610124212478743" config_type=FLD_bcc energy_TB=-11.315605349342713 energy=-9.116848085727012 stress="0.03102369575568801 0.10995716294922882 0.27107941423625453 0.10995716294922882 0.04454225141931396 -0.22718518148842193 0.27107941423625453 -0.22718518148842193 -0.5469060026234868" free_energy=-9.116848085727012 pbc="T T T"
Ti      -0.17978007      -0.05217531      -0.13645872      -0.72598068       1.08792050       2.16427185      -6.16177221       5.29216688      15.95387337
Ti       1.42457584       1.56472309       1.81740027       0.72598068      -1.08792050      -2.16427185       6.16177221      -5.29216688     -15.95387337
2
Lattice="3.1103154701643874 4.802244994833001e-33 1.283593600719433e-38 -4.802244994833001e-33 3.1103154701643874 2.4299817057921724e-39 -9.83564913110656e-39 -1.1309351449221235e-38 3.2216544374263707" Properties=species:S:1:pos:R:3:force:R:3:forces:R:3 virial="2.3192548937066015 -0.8829847798251581 1.0627713635975498 -0.8829847798251581 2.2787009392937647 0.9089979443911819 1.0627713635975498 0.9089979443911819 2.744429431019447" config_type=FLD_bcc energy_TB=-11.336133968895071 energy=-9.116848085727012 stress="0.03102369575568801 0.10995716294922882 0.27107941423625453 0.10995716294922882 0.04454225141931396 -0.22718518148842193 0.27107941423625453 -0.22718518148842193 -0.5469060026234868" free_energy=-9.116848085727012 pbc="T T T"
Ti      -0.12258260      -0.25487732       0.23839490       0.79539664       1.62680063      -0.00692574      -6.16177221       5.29216688      15.95387337
Ti       1.69083477       1.67548306       1.73463049      -0.79539664      -1.62680063       0.00692574       6.16177221      -5.29216688     -15.95387337
2
Lattice="3.1103154701643874 0.04396833380983399 1.283593600719433e-38 -4.802244994833001e-33 3.1103154701643874 2.4299817057921724e-39 -9.83564913110656e-39 -1.1309351449221235e-38 3.1103154701643874" Properties=species:S:1:pos:R:3:force:R:3:forces:R:3 virial="3.774397629138565 0.24608318969210505 -0.40498568680781566 0.24608318969210505 3.0803529486511927 0.6348571873298289 -0.40498568680781566 0.6348571873298289 3.323302008263383" config_type=FLD_bcc energy_TB=-11.378129848525806 energy=-9.116848085727012 stress="0.03102369575568801 0.10995716294922882 0.27107941423625453 0.10995716294922882 0.04454225141931396 -0.22718518148842193 0.27107941423625453 -0.22718518148842193 -0.5469060026234868" free_energy=-9.116848085727012 pbc="T T T"
Ti       0.29347626       0.05603499       0.01139006      -1.69156607       0.72487286      -0.13322668      -6.16177221       5.29216688      15.95387337
Ti       1.51927231       1.79168645       1.49722829       1.69156607      -0.72487286       0.13322668       6.16177221      -5.29216688     -15.95387337
2
Lattice="3.1103154701643874 4.802244994833001e-33 1.283593600719433e-38 0.10703159601260591 3.1103154701643874 2.4299817057921724e-39 -9.83564913110656e-39 -1.1309351449221235e-38 3.1103154701643874" Properties=species:S:1:pos:R:3:force:R:3:forces:R:3 virial="9.19006083170239 -5.801850218782516 -6.605773570800699 -5.801850218782516 6.835010517429173 6.025286609977705 -6.605773570800699 6.025286609977705 9.694991442900886" config_type=FLD_bcc energy_TB=-9.654837564704518 energy=-9.116848085727012 stress="0.03102369575568801 0.10995716294922882 0.27107941423625453 0.10995716294922882 0.04454225141931396 -0.22718518148842193 0.27107941423625453 -0.22718518148842193 -0.5469060026234868" free_energy=-9.116848085727012 pbc="T T T"
Ti       0.17068067      -0.47328323      -0.30150058      -7.00430997       7.53233121       7.19244945      -6.16177221       5.29216688      15.95387337
Ti       1.48116620       1.53841064       1.54999241       7.00430997      -7.53233121      -7.19244945       6.16177221      -5.29216688     -15.95387337
2
Lattice="3.1103154701643874 4.802244994833001e-33 1.283593600719433e-38 -4.802244994833001e-33 3.4214317192430577 2.4299817057921724e-39 -9.83564913110656e-39 -1.1309351449221235e-38 3.1103154701643874" Properties=species:S:1:pos:R:3:force:R:3:forces:R:3 virial="0.9977962933540203 -1.6277230453114948 -0.6663927959250001 -1.6277230453114948 2.1851791082349425 -1.0359430470217077 -0.6663927959250001 -1.0359430470217077 -0.13109342245201283" config_type=FLD_bcc energy_TB=-11.364519068238783 energy=-9.116848085727012 stress="0.03102369575568801 0.10995716294922882 0.27107941423625453 0.10995716294922882 0.04454225141931396 -0.22718518148842193 0.27107941423625453 -0.22718518148842193 -0.5469060026234868" free_energy=-9.116848085727012 pbc="T T T"
Ti      -0.39014380      -0.24899596      -0.39359411       0.14022012       0.12973484       1.49288292      -6.16177221       5.29216688      15.95387337
Ti       1.35912903       1.57623011       1.65361611      -0.14022012      -0.12973484      -1.49288292       6.16177221      -5.29216688     -15.95387337
2
Lattice="3.1103154701643874 4.802244994833001e-33 1.283593600719433e-38 -4.802244994833001e-33 3.1103154701643874 0.2501758751666371 -9.83564913110656e-39 -1.1309351449221235e-38 3.1103154701643874" Properties=species:S:1:pos:R:3:force:R:3:forces:R:3 virial="3.2749390754515586 -0.17578306805417684 0.4166086676612166 -0.17578306805417684 3.7277357301136167 0.5747442855146099 0.4166086676612166 0.5747442855146099 3.830821281702214" config_type=FLD_bcc energy_TB=-11.562858660877852 energy=-9.116848085727012 stress="0.03102369575568801 0.10995716294922882 0.27107941423625453 0.10995716294922882 0.04454225141931396 -0.22718518148842193 0.27107941423625453 -0.22718518148842193 -0.5469060026234868" free_energy=-9.116848085727012 pbc="T T T"
Ti       0.17583668       0.31821816      -0.12823016      -0.46594852      -0.67334521       0.36586813      -6.16177221       5.29216688      15.95387337
Ti       1.59291267       1.70578925       1.62817483       0.46594852       0.67334521      -0.36586813       6.16177221      -5.29216688     -15.95387337
2
Lattice="3.1103154701643874 4.802244994833001e-33 1.283593600719433e-38 -4.802244994833001e-33 3.503061300025024 2.4299817057921724e-39 -9.83564913110656e-39 -1.1309351449221235e-38 3.1103154701643874" Properties=species:S:1:pos:R:3:force:R:3:forces:R:3 virial="1.150485266597765 0.28820437737075977 0.042552475973318 0.28820437737075977 0.6488180001611656 -0.09479387550762304 0.042552475973318 -0.09479387550762304 0.9859659358098884" config_type=FLD_bcc energy_TB=-11.86038538009416 energy=-9.116848085727012 stress="0.03102369575568801 0.10995716294922882 0.27107941423625453 0.10995716294922882 0.04454225141931396 -0.22718518148842193 0.27107941423625453 -0.22718518148842193 -0.5469060026234868" free_energy=-9.116848085727012 pbc="T T T"
Ti       0.14778064       0.08813796      -0.08556759      -0.60407895      -0.31968688       0.18765816      -6.16177221       5.29216688      15.95387337
Ti       1.60290737       1.63507219       1.50329175       0.60407895       0.31968688      -0.18765816       6.16177221      -5.29216688     -15.95387337
2
Lattice="3.153816385831022 4.869409260495001e-33 -0.0004024432538825007 -4.869409260495001e-33 3.153816385831022 2.4639674639151404e-39 -9.973210657415744e-39 -1.1467524196762792e-38 3.153816385831022" Properties=species:S:1:pos:R:3:force:R:3:forces:R:3 virial="3.4177557853023655 -0.849970103980659 0.2047261883115004 -0.849970103980659 0.5011452021235474 -0.07380860881846507 0.2047261883115004 -0.07380860881846507 4.348890841312283" config_type=FLD_bcc energy_TB=-11.033271395499753 energy=-9.116848085727012 stress="0.03102369575568801 0.10995716294922882 0.27107941423625453 0.10995716294922882 0.04454225141931396 -0.22718518148842193 0.27107941423625453 -0.22718518148842193 -0.5469060026234868" free_energy=-9.116848085727012 pbc="T T T"
Ti      -0.03251257       0.37900092       0.25790433      -0.37896905      -1.52409896      -0.54233239      -6.16177221       5.29216688      15.95387337
Ti       1.34425892       1.38617237       1.77538173       0.37896905       1.52409896       0.54233239       6.16177221      -5.29216688     -15.95387337
2
Lattice="3.153816385831022 4.869409260495001e-33 -0.13073281286156238 -4.869409260495001e-33 3.153816385831022 2.4639674639151404e-39 -9.973210657415744e-39 -1.1467524196762792e-38 3.153816385831022" Properties=species:S:1:pos:R:3:force:R:3:forces:R:3 virial="3.9267056605888366 -0.08568223570938252 0.10268565766270897 -0.08568223570938252 0.9830387493172933 -0.09324418319333538 0.10268565766270897 -0.09324418319333538 5.167031538071328" config_type=FLD_bcc energy_TB=-11.069162674664314 energy=-9.116848085727012 stress="0.03102369575568801 0.10995716294922882 0.27107941423625453 0.10995716294922882 0.04454225141931396 -0.22718518148842193 0.27107941423625453 -0.22718518148842193 -0.5469060026234868" free_energy=-9.116848085727012 pbc="T T T"
Ti      -0.23438452      -0.21672362       0.08766837       0.98094356       2.31043725       0.53173493      -6.16177221       5.29216688      15.95387337
Ti       1.55280379       1.91461394       1.62373336      -0.98094356      -2.31043725      -0.53173493       6.16177221      -5.29216688     -15.95387337
2
Lattice="3.153816385831022 4.869409260495001e-33 1.3015459587714532e-38 -4.869409260495001e-33 3.153816385831022 2.4639674639151404e-39 -9.973210657415744e-39 -1.1467524196762792e-38 3.1151302130456906" Properties=species:S:1:pos:R:3:force:R:3:forces:R:3 virial="5.538314590239721 0.7249756256370405 1.0909358508648495 0.7249756256370405 0.9634334798295381 -0.47427133024744794 1.0909358508648495 -0.47427133024744794 4.046264139175186" config_type=FLD_bcc energy_TB=-10.996210333510337 energy=-9.116848085727012 stress="0.03102369575568801 0.10995716294922882 0.27107941423625453 0.10995716294922882 0.04454225141931396 -0.22718518148842193 0.27107941423625453 -0.22718518148842193 -0.5469060026234868" free_energy=-9.116848085727012 pbc="T T T"
Ti      -0.07921859      -0.14237043      -0.26443677      -1.29188624      -1.70334771      -0.80639193      -6.16177221       5.29216688      15.95387337
Ti       1.44805378       0.87841663       1.05081022       1.29188624       1.70334771       0.80639193       6.16177221      -5.29216688     -15.95387337
2
Lattice="3.153816385831022 4.869409260495001e-33 1.3015459587714532e-38 -4.869409260495001e-33 3.153816385831022 2.4639674639151404e-39 -9.973210657415744e-39 -1.1467524196762792e-38 3.0428987998448953" Properties=species:S:1:pos:R:3:force:R:3:forces:R:3 virial="3.618915453727767 1.0220736712038383 -0.9943430856603857 1.0220736712038383 4.323462860502589 0.7231594516182636 -0.9943430856603857 0.7231594516182636 1.465964415538132" config_type=FLD_bcc energy_TB=-11.08505415851659 energy=-9.116848085727012 stress="0.03102369575568801 0.10995716294922882 0.27107941423625453 0.10995716294922882 0.04454225141931396 -0.22718518148842193 0.27107941423625453 -0.22718518148842193 -0.5469060026234868" free_energy=-9.116848085727012 pbc="T T T"
Ti      -0.07256876      -0.15409524       0.20085260       0.09257712      -0.10510057      -1.64157605      -6.16177221       5.29216688      15.95387337
Ti       1.34765093       1.47009052       1.22355893      -0.09257712       0.10510057       1.64157605       6.16177221      -5.29216688     -15.95387337
2
Lattice="3.153816385831022 4.869409260495001e-33 1.3015459587714532e-38 -4.869409260495001e-33 3.153816385831022 2.4639674639151404e-39 0.022050573674939 -1.1467524196762792e-38 3.153816385831022" Properties=species:S:1:pos:R:3:force:R:3:forces:R:3 virial="2.7020441886499897 -0.010378487213947003 -0.2490294400447588 -0.010378487213947003 2.413565499676941 -0.07174702657109158 -0.2490294400447588 -0.07174702657109158 2.4205657074682527" config_type=FLD_bcc energy_TB=-11.736441568650639 energy=-9.116848085727012 stress="0.03102369575568801 0.10995716294922882 0.27107941423625453 0.10995716294922882 0.04454225141931396 -0.22718518148842193 0.27107941423625453 -0.22718518148842193 -0.5469060026234868" free_energy=-9.116848085727012 pbc="T T T"
Ti       0.10339761      -0.01439825      -0.13253514      -0.56103019       0.28257932       0.78361914      -6.16177221       5.29216688      15.95387337
Ti       1.51431628       1.60827361       1.56198128       0.56103019      -0.28257932      -0.78361914       6.16177221      -5.29216688     -15.95387337
2
Lattice="3.153816385831022 4.869409260495001e-33 1.3015459587714532e-38 -4.869409260495001e-33 3.153816385831022 -0.061581900724042876 -9.973210657415744e-39 -1.1467524196762792e-38 3.153816385831022" Properties=species:S:1:pos:R:3:force:R:3:forces:R:3 virial="7.908904518417509 3.736212595404437 -5.263480383637639 3.736212595404437 4.47543274490764 -4.3877203505110165 -5.263480383637639 -4.3877203505110165 9.337134208998588" config_type=FLD_bcc energy_TB=-10.483482314167448 energy=-9.116848085727012 stress="0.03102369575568801 0.10995716294922882 0.27107941423625453 0.10995716294922882 0.04454225141931396 -0.22718518148842193 0.27107941423625453 -0.22718518148842193 -0.5469060026234868" free_energy=-9.116848085727012 pbc="T T T"
Ti      -0.07307225       0.20384706      -0.10189588      -5.48944202      -5.52007116       5.55110544      -6.16177221       5.29216688      15.95387337
Ti       1.18342082       1.27671065       1.67830816       5.48944202       5.52007116      -5.55110544       6.16177221      -5.29216688     -15.95387337
2
Lattice="3.153816385831022 4.869409260495001e-33 1.3015459587714532e-38 -4.869409260495001e-33 3.153816385831022 0.17213937792410636 -9.973210657415744e-39 -1.1467524196762792e-38 3.153816385831022" Properties=species:S:1:pos:R:3:force:R:3:forces:R:3 virial="1.960187182726893 1.278900703421767 -0.9735666796777773 1.278900703421767 2.338761820785759 0.9798881265722507 -0.9735666796777773 0.9798881265722507 2.360308934171336" config_type=FLD_bcc energy_TB=-11.56040895338038 energy=-9.116848085727012 stress="0.03102369575568801 0.10995716294922882 0.27107941423625453 0.10995716294922882 0.04454225141931396 -0.22718518148842193 0.27107941423625453 -0.22718518148842193 -0.5469060026234868" free_energy=-9.116848085727012 pbc="T T T"
Ti      -0.05681643      -0.00490671       0.20668471      -0.68259823       0.18266792      -0.47998822      -6.16177221       5.29216688      15.95387337
Ti       1.26772155       1.72988896       1.64065500       0.68259823      -0.18266792       0.47998822       6.16177221      -5.29216688     -15.95387337
2
Lattice="3.153816385831022 4.869409260495001e-33 1.3015459587714532e-38 0.10120816015140627 3.153816385831022 2.4639674639151404e-39 -9.973210657415744e-39 -1.1467524196762792e-38 3.153816385831022" Properties=species:S:1:pos:R:3:force:R:3:forces:R:3 virial="2.2767821708297915 0.18847703388346312 0.2846933217862552 0.18847703388346312 2.2535083971916663 -0.11645646344078632 0.2846933217862552 -0.11645646344078632 3.121751734028177" config_type=FLD_bcc energy_TB=-11.547407360707666 energy=-9.116848085727012 stress="0.03102369575568801 0.10995716294922882 0.27107941423625453 0.10995716294922882 0.04454225141931396 -0.22718518148842193 0.27107941423625453 -0.22718518148842193 -0.5469060026234868" free_energy=-9.116848085727012 pbc="T T T"
Ti       0.00608903      -0.03158503      -0.01902095      -0.23661723       0.77291507       1.64446494      -6.16177221       5.29216688      15.95387337
Ti       1.55388527       1.69328999       1.87829699       0.23661723      -0.77291507      -1.64446494       6.16177221      -5.29216688     -15.95387337
2