54
Lattice="9.494074844243043 1.4658600980731504e-32 3.9181021448533744e-38 -1.4658600980731504e-32 9.494074844243043 7.417391710337645e-39 -0.07181351415269525 -3.452120215094454e-38 9.494074844243043" Properties=species:S:1:pos:R:3:force:R:3 energy=-319.8539597445236 config_type=FLD_bcc pbc="F F F"
Ti      -0.00154610      -0.04389326      -0.07992042       0.20092442       0.24438010       0.22830632
Ti       1.50996647       1.50713449       1.59018698       0.35618616      -0.10368422      -0.05303351
Ti      -0.06718659       0.08853623       3.10157928       0.21203539      -0.46717776       0.33228971
Ti       1.58711859       1.55355809       4.77277307      -0.08028747      -0.11520584      -0.24317712
Ti      -0.03761102      -0.00391234       6.38397823       0.04058321       0.02179631      -0.29942783
Ti       1.58832359       1.59630617       7.91726836       0.13872380       0.11305825       0.08977387
Ti       0.01712825       3.05521537       0.06532130       0.08502074       0.21852054      -0.64559844
Ti       1.60147683       4.70063533       1.51582812       0.19601044       0.11047089       0.03839127
Ti       0.04352015       3.15380465       3.20433205      -0.04348300      -0.19708190       0.04407881
Ti       1.55406731       4.81861365       4.76627250       0.15158078      -0.00751616      -0.10142988
Ti       0.05673064       3.15993257       6.24642135      -0.18086587       0.24426355       0.56372715
Ti       1.63072561       4.74626816       7.98055705      -0.26966523      -0.32467350      -0.15852107
Ti      -0.02472194       6.32015778       0.08597049       0.17791602       0.07833122      -0.30351550
Ti       1.55950646       7.86452338       1.61541768       0.08049572       0.24519422       0.08128319
Ti       0.02170196       6.33721521       3.12937743      -0.20882104       0.01034583       0.02622293
Ti       1.57106284       7.88945298       4.84677264       0.10078419       0.13037309      -0.57796011
Ti       0.04631215       6.30085932       6.35282740      -0.28372196      -0.01903361       0.01966020
Ti       1.53198215       7.92974729       7.88105765       0.13152506      -0.11687851      -0.03267153
Ti       3.24271198      -0.12274281       0.04040721      -0.40338325       0.33989586      -0.23027064
Ti       4.70463114       1.54176662       1.57272002       0.31226280      -0.11376751      -0.01821489
Ti       3.18400546       0.01590226       3.17140175      -0.29965447      -0.34554253       0.17209435
Ti       4.73635239       1.62575902       4.70274204      -0.03264959      -0.17438199       0.13629270
Ti       3.11202453       0.10117886       6.27493801       0.33345769      -0.38819399       0.20982347
Ti       4.74179550       1.60956416       7.95947448      -0.12497044      -0.14083190      -0.09953899
Ti       3.28135585       3.09739686       0.08658449      -0.17182265       0.26770335      -0.39161517
Ti       4.64074241       4.82189529       1.58607012       0.59850264      -0.12122072       0.23574972
Ti       3.17244109       3.11993972       3.13455267      -0.19180989       0.37935619       0.00325115
Ti       4.78689504       4.66341521       4.83651651      -0.07335850       0.26172780      -0.59830751
Ti       3.14954876       3.14012297       6.25446769      -0.07237916       0.10510453       0.59867120
Ti       4.82117866       4.79791052       7.83114280      -0.35651227      -0.42826868       0.41384234
Ti       3.22015002       6.36113067      -0.05067449      -0.27664179      -0.08441156       0.09698468
Ti       4.74914655       7.98402661       1.52750275       0.20371586      -0.56307875       0.44872015
Ti       3.17108394       6.24841564       3.12052229       0.05671154       0.29753244       0.35864993
Ti       4.78631022       7.92302676       4.72945966      -0.12591980       0.01756635      -0.07652049
Ti       3.25593676       6.36086015       6.30764632      -0.35521344      -0.12443550       0.05350325
Ti       4.70576593       7.83754956       7.94071838      -0.11609079       0.37070665      -0.40986857
Ti       6.29533998      -0.06985512      -0.05347059       0.23331169       0.45266409      -0.01640532
Ti       7.96517882       1.60379183       1.58364441      -0.13029203      -0.03036974      -0.16287134
Ti       6.34609657       0.06598799       3.16220417      -0.15945298      -0.14796117      -0.14142269
Ti       7.82328361       1.53596629       4.78179920       0.39865958       0.25873570       0.04425694
Ti       6.33111103      -0.04737441       6.32474589      -0.31502189       0.06961086       0.03251395
Ti       7.84209305       1.54185853       7.84430245      -0.06774292       0.19366924       0.11873351
Ti       6.36486031       3.13106625       0.06493913      -0.10947406       0.31157524      -0.14239585
Ti       7.99877803       4.65653328       1.55703091      -0.57392605       0.29902722       0.19611809
Ti       6.31894136       3.11162808       3.17412428      -0.00977709       0.47665023      -0.28745477
Ti       7.95362938       4.67549023       4.76535138       0.10055013       0.32201616      -0.08655284
Ti       6.31917062       3.16809886       6.29511366       0.15995814      -0.09867983       0.36629285
Ti       7.89409430       4.78246958       7.98185652       0.14276699      -0.37523109      -0.13297244
Ti       6.36266395       6.37729927      -0.06902972       0.24294929      -0.27426075       0.49427012
Ti       7.87121075       7.96282679       1.57542279       0.03167755      -0.21203176       0.16614085
Ti       6.39711173       6.32215434       3.25423727      -0.26755810      -0.26213519      -0.44463925
Ti       7.83555968       7.94270291       4.63613572       0.37920642      -0.19986947       0.33675435
Ti       6.32059828       6.33248308       6.36502967       0.32954081       0.07445980      -0.35405880
Ti       7.96068771       7.98868051       7.88983750      -0.09456133      -0.47881209       0.10204750
54
Lattice="9.494074844243043 1.4658600980731504e-32 3.9181021448533744e-38 -1.4658600980731504e-32 9.494074844243043 -0.07035943460006312 -3.002280311697912e-38 -3.452120215094454e-38 9.494074844243043" Properties=species:S:1:pos:R:3:force:R:3 energy=-319.9154277678582 config_type=FLD_bcc pbc="F F F"
Ti       0.11928451      -0.05994086       0.03577813      -0.53421724       0.41134405      -0.03118216
Ti       1.54113020       1.62959890       1.59791417       0.16867129      -0.25116373       0.04435372
Ti      -0.01886229      -0.06925450       3.21757471      -0.03455732       0.23050639      -0.12879851
Ti       1.60968500       1.54547780       4.66639381       0.04952184       0.05299239       0.07782253
Ti      -0.02502995      -0.00187478       6.29722742       0.01916423      -0.07461325       0.18123364
Ti       1.56425546       1.58203759       7.82988267       0.00003073      -0.15480695       0.47670701
Ti       0.00493485       3.22121987      -0.01839178      -0.12847209      -0.27974895       0.04054964
Ti       1.62875790       4.69501204       1.61708965       0.08731761       0.23437747       0.02201787
Ti       0.02384967       3.20739875       3.12190386      -0.26894289       0.05907940       0.40272456
Ti       1.57227753       4.75060280       4.80516688       0.25045271       0.13767427      -0.24299594
Ti       0.05946454       3.12092542       6.32318708      -0.14462594       0.38955734      -0.20812053
Ti       1.61784474       4.77172676       7.89752923      -0.05282590      -0.29250024      -0.23096200
Ti       0.13441870       6.32721125       0.01234745      -0.64809490      -0.15239592      -0.01562953
Ti       1.57104781       7.87014166       1.55969988       0.44881979       0.21390476       0.09629943
Ti       0.00433048       6.36904205       3.13026813       0.03747839      -0.15419557       0.08970509
Ti       1.49492166       7.95954716       4.73939665       0.69593529      -0.32377405      -0.25858169
Ti       0.03008707       6.31293841       6.40348536      -0.19471867       0.08712200      -0.22652594
Ti       1.59178679       7.88091248       7.99395524       0.15952568       0.28387614      -0.51899946
Ti       3.19945008       0.01899701      -0.05043380      -0.30247635       0.06696461       0.56582886
Ti       4.76612072       1.63116275       1.54794960       0.12183473      -0.51673005      -0.13580708
Ti       3.21970305      -0.00650256       3.09146329      -0.12301421      -0.34053455       0.16967615
Ti       4.69010562       1.54960509       4.76385246       0.15226076       0.06685096      -0.24172972
Ti       3.23923611      -0.00396618       6.34702054      -0.49895219      -0.15645534       0.05497961
Ti       4.70234268       1.60723790       7.94564578       0.11416736      -0.09120363       0.01007535
Ti       3.17284009       3.13396107       0.03021924      -0.12147427       0.10854952      -0.21767218
Ti       4.70424160       4.79257454       1.59883169       0.20728893       0.02982300      -0.17074693
Ti       3.27529967       3.20206735       3.10383178      -0.57887707      -0.16747892       0.29456333
Ti       4.77360320       4.67650072       4.76576934      -0.17004803       0.10621097      -0.01766139
Ti       3.13305252       3.10166247       6.34300198       0.02946702       0.29676233      -0.15778753
Ti       4.79349950       4.79075036       7.92707129      -0.14632253      -0.45999561      -0.14945903
Ti       3.14355791       6.28712492      -0.07131346       0.25859239       0.13359363       0.49620416
Ti       4.88076991       7.90804242       1.55305588      -0.31113260       0.05977878      -0.20546818
Ti       3.28878057       6.31802451       3.10608843      -0.46671002       0.24922449       0.54220398
Ti       4.72783379       7.90337894       4.85614820      -0.04962321       0.25377910      -0.67719499
Ti       3.20771561       6.33755700       6.34956131      -0.35614837      -0.00526484      -0.18336635
Ti       4.70580057       7.88047999       7.90366114       0.32282208       0.04061908      -0.22636485
Ti       6.38291032      -0.04152463      -0.06911222       0.08706690       0.27946060       0.28198071
Ti       7.88596640       1.64904680       1.64550127       0.23339113      -0.29499136      -0.31277089
Ti       6.31215027       0.04977606       3.14699884       0.05660800      -0.12021732       0.26029619
Ti       7.94440854       1.54966412       4.80372934      -0.28885159       0.31766775      -0.28908986
Ti       6.33427123       0.02908904       6.35688113       0.02435454      -0.03204015       0.30350188
Ti       7.96889661       1.60667917       7.89163285      -0.01933866      -0.05913517       0.00954095
Ti       6.26558536       3.11155343      -0.00734272       0.47013801       0.42466654      -0.07542365
Ti       7.92826890       4.75276083       1.55522187      -0.09510948      -0.04985201       0.02716402
Ti       6.30849695       3.17370390       3.15289976       0.34326365      -0.07314789       0.27412627
Ti       7.92265178       4.90110101       4.68683286       0.11878001      -0.77484003       0.23395194
Ti       6.21997268       3.09482357       6.28791035       0.73907543       0.35069390       0.17073718
Ti       7.90646731       4.76884744       7.96727728      -0.17288538      -0.36164873      -0.19527005
Ti       6.31582724       6.30188893      -0.02002669       0.11247843       0.18716702       0.08333533
Ti       7.91937022       7.93419351       1.53986762      -0.13704544      -0.00382316      -0.13967169
Ti       6.32820146       6.35131159       3.19958127      -0.06493279      -0.00494562      -0.19545828
Ti       7.86574275       7.86908671       4.76765920       0.18452057       0.13602577      -0.06368639
Ti       6.32388889       6.28347579       6.27351739       0.05018155      -0.08129320       0.23947349
Ti       7.87529899       7.87519958       7.88557738       0.36618811       0.06852397       0.06737190
54
Lattice="9.494074844243043 1.4658600980731504e-32 3.9181021448533744e-38 -1.4658600980731504e-32 9.43207602359466 7.417391710337645e-39 -3.002280311697912e-38 -3.452120215094454e-38 9.494074844243043" Properties=species:S:1:pos:R:3:force:R:3 energy=-319.49142367966533 config_type=FLD_bcc pbc="F F F"
Ti      -0.03117122       0.00700921       0.05125141      -0.09829505       0.12620988      -0.01055414
Ti       1.62005854       1.65839090       1.68436718       0.02153624      -0.07631934      -0.46646926
Ti       0.02155936       0.01953625       3.13722597      -0.18727393       0.14627347       0.00528484
Ti       1.62868480       1.60452458       4.60511811      -0.24118412      -0.04509711       0.68328255
Ti       0.05189199      -0.00432639       6.38215566      -0.07836404       0.28596545      -0.32878982
Ti       1.54147692       1.47170228       7.95234749       0.34268262       0.55155288       0.08744264
Ti      -0.03320998       3.17879623       0.07590951       0.27354055      -0.30408764      -0.49500197
Ti       1.65505352       4.64854926       1.60495558      -0.45775441       0.32810851      -0.10341166
Ti      -0.04624456       3.13165254       3.18500371       0.15412242      -0.00375163       0.03433030
Ti       1.62927729       4.72887014       4.79212905      -0.02221594       0.11314842      -0.16190565
Ti       0.02468239       3.20929251       6.32343525       0.13252936      -0.33083413      -0.28846488
Ti       1.49500453       4.75406311       7.85211081       0.17096332      -0.08573707       0.05298667
Ti      -0.05021586       6.30285680       0.04157809       0.23777482      -0.18897173      -0.10075995
Ti       1.53595031       7.92943499       1.53548494       0.08029853      -0.36383021       0.13817574
Ti      -0.10687496       6.35779406       3.19597333       0.66747514      -0.16690399      -0.32144327
Ti       1.51166986       7.93297459       4.74636289       0.32257329       0.00476537      -0.02715355
Ti       0.07522882       6.32072676       6.30372957      -0.20105032      -0.00818049       0.21249856
Ti       1.47580211       7.89794406       7.97950866       0.58084091       0.05182739       0.06581190
Ti       3.20132981       0.05769921       0.07369354      -0.05391757       0.13419304      -0.12987918
Ti       4.72205604       1.62335937       1.66551043       0.39102232      -0.06567394      -0.34606828
Ti       3.10264478      -0.01031222       3.22144840       0.30914223      -0.07058411      -0.15557101
Ti       4.84071676       1.66751264       4.70512948      -0.23331729      -0.20431233       0.10264803
Ti       3.20554576       0.07676434       6.40161320      -0.07099032      -0.30592887      -0.37099700
Ti       4.76315739       1.57285267       7.91710183       0.13031797      -0.06843831       0.24995770
Ti       3.18034170       3.20913642      -0.07235871      -0.09106943      -0.24989644       0.11262097
Ti       4.76648326       4.81536184       1.52406077      -0.00442953      -0.15097563       0.07853635
Ti       3.18885717       3.25029248       3.13972650       0.29113701       0.17206040       0.16523797
Ti       4.75597429       4.68414792       4.78358171      -0.20034649       0.41391831       0.05477486
Ti       3.20306398       3.12074867       6.34613800      -0.23873710      -0.15719628       0.15579500
Ti       4.78212143       4.74244063       7.93543815      -0.10515684       0.04092009      -0.07944804
Ti       3.07574764       6.25029614      -0.04611919       0.14122751       0.14573767       0.09907584
Ti       4.68309066       7.85881610       1.58814257       0.03403417      -0.07984212       0.10775439
Ti       3.09960686       6.31065690       3.12028464       0.12673148      -0.08682350       0.20660441
Ti       4.79217029       7.82972570       4.71064099      -0.40363845      -0.14706588       0.07016055
Ti       3.06981716       6.41357746       6.31817389       0.43077838      -0.14893889       0.14311682
Ti       4.79947649       7.88846892       7.98394731      -0.23807255       0.08425306      -0.33126340
Ti       6.40751559      -0.02954469       0.01953656      -0.45119351       0.25274353       0.07259526
Ti       7.86230107       1.54796266       1.53356248      -0.09461556       0.04215527       0.43086607
Ti       6.26659469      -0.02980622       3.15905994       0.19773522       0.21651903       0.10921319
Ti       7.96798716       1.60077996       4.74691620      -0.28575194      -0.25183823       0.14326384
Ti       6.29813501      -0.02453636       6.21805958       0.13675488       0.21205012       0.30907024
Ti       8.02284567       1.55579928       7.82461124      -0.40968124       0.17710794       0.20610124
Ti       6.44857081       3.17909905       0.07254229      -0.49432389      -0.29602728      -0.49679878
Ti       7.95182002       4.68197648       1.53259790      -0.07715005       0.35600757       0.33136583
Ti       6.41220603       3.18662281       3.18893764      -0.13785304       0.08122976      -0.18305488
Ti       7.99541262       4.85943882       4.71124086      -0.23091060      -0.47065861       0.37150225
Ti       6.29489074       3.16347527       6.39323604       0.35368795       0.09022773      -0.23561769
Ti       7.92979973       4.67681394       7.88473409      -0.03559786       0.25613914       0.30391992
Ti       6.30874660       6.37092893       0.02117719       0.17522223      -0.17297585      -0.29034349
Ti       7.89402150       7.82890983       1.59037275       0.08612323       0.24186912       0.09098481
Ti       6.42008294       6.26468640       3.21558305      -0.42323940      -0.06857531      -0.19960948
Ti       7.91932182       7.84006815       4.79062110      -0.05442346       0.24489575      -0.12261281
Ti       6.32554336       6.28717489       6.33231006      -0.11024326      -0.01667300       0.18362473
Ti       7.88642013       7.91296175       7.91373887      -0.05745462      -0.18374096      -0.13338529
54
Lattice="9.787706024992827 1.5111959773950004e-32 4.0392805617045097e-38 -1.5111959773950004e-32 9.787706024992827 7.646795577667676e-39 -3.09513434195661e-38 -3.558886819685004e-38 9.785335339587803" Properties=species:S:1:pos:R:3:force:R:3 energy=-323.5045921217536 config_type=FLD_bcc pbc="F F F"
Ti      -0.07454163       0.00855858       0.13365323       0.05127412       0.02786308      -0.75354228
Ti       1.70065584       1.51126414       1.57735186      -0.42103672       0.65065598       0.10339776
Ti       0.03507119      -0.00605866       3.27863782      -0.00545662      -0.03235902      -0.11377021
Ti       1.61831380       1.63259254       4.83800925      -0.26648791       0.02545627       0.23519596
Ti      -0.01615347      -0.06251567       6.60154740       0.12595551       0.30483034      -0.20588954
Ti       1.68702205       1.64368621       8.18683319      -0.30331436      -0.27591428      -0.10501078
Ti       0.01692516       3.31878192      -0.07721836       0.21656207      -0.12452886       0.29245057
Ti       1.70398810       4.90766482       1.59870565      -0.19952565       0.22617381       0.02178176
Ti      -0.04850251       3.30413713       3.20359386       0.12019010      -0.30314056       0.06041283
Ti       1.66222348       4.75272095       4.84401232      -0.37398573       0.54836071       0.06804249
Ti       0.03680616       3.29505613       6.52836493      -0.21516634      -0.01003672      -0.09897028
Ti       1.64408464       4.87625411       8.11403982       0.05884683       0.23627108       0.00314787
Ti      -0.01710339       6.52927252      -0.00088684       0.33265935      -0.10943329      -0.10773965
Ti       1.57115972       8.10857234       1.62577194       0.41364354       0.05517497       0.16152275
Ti      -0.01531761       6.58895879       3.25223930       0.14367877      -0.57846732       0.26131967
Ti       1.64532548       8.13797020       4.89360432       0.00540408       0.11906194       0.12590602
Ti      -0.07307214       6.54815880       6.48555857       0.29763704      -0.16628734      -0.03014467
Ti       1.65412906       8.20221294       8.12534651      -0.32009230      -0.05566991       0.05685646
Ti       3.24984160      -0.00853836      -0.01591813       0.22758661      -0.11855438      -0.08126234
Ti       4.84657143       1.62581333       1.69772691       0.24412543       0.15325145      -0.39643679
Ti       3.25829166       0.06308380       3.24648278      -0.05706057      -0.46999603       0.11124462
Ti       4.84419779       1.59550993       4.92541531       0.22722171       0.08404111      -0.18057525
Ti       3.27141599      -0.01512826       6.49131640      -0.09963910       0.03056684       0.22641364
Ti       4.95873905       1.63366218       8.16592378      -0.10776896      -0.22216724      -0.16412283
Ti       3.25497153       3.24173680      -0.07941111       0.11564842      -0.07064328       0.32130623
Ti       4.88823006       4.85714069       1.59656250      -0.19600168       0.04918723       0.13980724
Ti       3.21546567       3.28277150       3.28480436       0.18463558      -0.10957523      -0.26067764
Ti       4.90554179       4.91320617       4.85612658       0.39438937       0.02068579       0.31144703
Ti       3.23925966       3.22203390       6.42914718       0.18660244       0.02546078       0.44555829
Ti       4.87555923       4.83251599       8.19216223      -0.04577196       0.32889490      -0.25696496
Ti       3.26637734       6.59993201      -0.01509238      -0.14158250      -0.25260026      -0.13864473
Ti       4.83710750       8.17317930       1.58543937       0.21809329       0.01109096       0.30377945
Ti       3.31433392       6.45068392       3.35552977      -0.23374781       0.13104797      -0.36628257
Ti       4.87848687       8.13035146       4.88070919       0.01948580      -0.04294308      -0.20614183
Ti       3.20866407       6.53681442       6.50299152       0.31750810      -0.15086908       0.00178131
Ti       4.93453482       8.14178320       8.18730890      -0.10441290       0.13012398      -0.12975570
Ti       6.55587179      -0.05618132       0.00818837       0.04296579       0.40838497       0.17832068
Ti       8.20369393       1.62201693       1.61537467      -0.29483714       0.25115525       0.05400679
Ti       6.46864423       0.08086159       3.25409134       0.10352528      -0.17927293       0.04701304
Ti       8.18295487       1.60510473       4.95895515       0.24344017       0.00981833      -0.16666267
Ti       6.54157499      -0.06489150       6.43768368      -0.00511082       0.18849513       0.39193345
Ti       8.14161184       1.77781455       8.11214712       0.03998021      -0.71322046       0.25554315
Ti       6.50617389       3.31928932       0.00245989       0.00806654      -0.26563871       0.00389503
Ti       8.18356153       4.88677440       1.61079858       0.07921513      -0.13239373       0.00960363
Ti       6.56745325       3.26091807       3.29287952       0.00497062      -0.24567956      -0.13496900
Ti       8.04997547       4.90311023       4.84975720       0.20017454       0.02770247       0.24021051
Ti       6.53687920       3.17129583       6.56514008      -0.17517125       0.52113325      -0.22805646
Ti       8.16256297       4.93524601       8.14983823      -0.11695377      -0.02176709      -0.12335495
Ti       6.52364045       6.53320888       0.07594536      -0.17018051      -0.12102547      -0.24865860
Ti       8.17428962       8.11484394       1.67546944      -0.04930871       0.41206993      -0.03589729
Ti       6.59825368       6.51620936       3.15600451      -0.55554105       0.05341501       0.18800122
Ti       8.17045431       8.15664584       4.86861009      -0.10824206       0.13850120      -0.11630071
Ti       6.51314367       6.60907192       6.54433240      -0.01447920      -0.27953880      -0.05512361
Ti       8.14752429       8.14487345       8.17848602      -0.04261082      -0.11715212       0.08505590
54
Lattice="9.787706024992827 1.5111959773950004e-32 4.0392805617045097e-38 -1.5111959773950004e-32 9.787706024992827 7.646795577667676e-39 -0.011681905248310875 -3.558886819685004e-38 9.787706024992827" Properties=species:S:1:pos:R:3:force:R:3 energy=-323.5287158768858 config_type=FLD_bcc pbc="F F F"
Ti      -0.02128104      -0.02489912      -0.08409673       0.05046699       0.16006098       0.12621136
Ti       1.70199227       1.58048107       1.54173059      -0.25722316       0.21222896       0.31962570
Ti      -0.08815377      -0.08804265       3.19453333       0.64661993       0.19684217       0.49640510
Ti       1.61873960       1.58468921       4.89556690       0.06755259      -0.10294793      -0.28410428
Ti      -0.03482348       0.00094188       6.50671321      -0.21727819      -0.17929603      -0.14732889
Ti       1.52921938       1.59387116       8.15565925       0.37242928       0.07234711      -0.13505805
Ti      -0.03644993       3.25733436      -0.09496259       0.36945967       0.32468445       0.29683895
Ti       1.66177884       4.88410236       1.65133138      -0.22800056      -0.08161610      -0.26402497
Ti      -0.04310049       3.20750602       3.24122927       0.55663611      -0.03398763      -0.06737580
Ti       1.66563279       4.86913628       4.89145406      -0.09793187       0.16055027      -0.10556766
Ti       0.03913593       3.24874512       6.48576535      -0.17879919      -0.03896722       0.27098813
Ti       1.68196445       4.97298789       8.07092718      -0.15161145      -0.32284918       0.37851908
Ti       0.04801697       6.57030046       0.07792837      -0.10380836      -0.50706276      -0.16125746
Ti       1.61151889       8.16149908       1.56497798       0.30701489      -0.09189694       0.22066564
Ti       0.00171364       6.50362536       3.23033972      -0.11424220      -0.03559212      -0.00531086
Ti       1.72596015       8.05891313       4.85904497      -0.50503462       0.37563782       0.04666725
Ti      -0.02787284       6.49413912       6.51786466       0.19049377       0.17211005      -0.20888641
Ti       1.57703443       8.25085353       8.16107851       0.18253736      -0.53683423      -0.21388222
Ti       3.26792552      -0.03825777      -0.04449696       0.03487307       0.21807667       0.22888404
Ti       4.92490698       1.64876115       1.56106723      -0.51823250      -0.17855157       0.25477643
Ti       3.28454691      -0.05504508       3.22668325      -0.10472783       0.18067725       0.03943883
Ti       4.85991289       1.61885581       4.91967701       0.12061561       0.05911407      -0.19628130
Ti       3.31703336      -0.01607949       6.50740399      -0.35885942       0.16153212       0.01364087
Ti       4.90331505       1.62622569       8.15000873       0.09790559       0.03184619       0.09142184
Ti       3.24785657       3.24277191       0.01473660       0.02551898       0.22322666      -0.34537167
Ti       4.95215682       4.83771400       1.65941226      -0.13707946       0.39971360      -0.17944048
Ti       3.25781431       3.32295152       3.23877397       0.06912423      -0.42897090       0.05489887
Ti       4.88763441       4.95439239       4.88777970       0.10029294      -0.20657275       0.06275445
Ti       3.24385134       3.20860238       6.51631865      -0.01666384       0.08992989      -0.03637913
Ti       4.95798549       4.89165018       8.04435176      -0.34009137      -0.10744658       0.32566278
Ti       3.31807142       6.50348557      -0.06393559      -0.04519221      -0.01656373       0.08635956
Ti       4.86840488       8.14046379       1.68632094       0.24485651      -0.05404806      -0.31782377
Ti       3.28428000       6.52709235       3.21158477      -0.02901958      -0.08718441       0.10633605
Ti       4.90261862       8.20041137       4.92991644       0.22034868      -0.24217821      -0.37216535
Ti       3.24299564       6.53989040       6.53705868       0.14304945       0.17866937       0.08504616
Ti       4.87421239       8.21264240       8.16579473       0.18750421      -0.17792958      -0.01500306
Ti       6.55123458       0.00237929       0.01568104      -0.18162612      -0.14753557      -0.14678830
Ti       8.20944594       1.57449683       1.61130024      -0.14421008       0.24348284      -0.10400658
Ti       6.56148649       0.00508861       3.20987365      -0.22784559       0.03633993       0.26475258
Ti       8.18755993       1.64012488       4.80332111      -0.15964692      -0.11490594       0.34194752
Ti       6.47146053       0.01342496       6.55231677       0.46853006       0.03693731      -0.08138304
Ti       8.13733005       1.65821011       8.22364037      -0.05543333       0.03434482      -0.50724335
Ti       6.49725523       3.22250883       0.03693880       0.24093451       0.20415994      -0.30390279
Ti       8.12700500       4.78472731       1.66199524       0.18636974       0.36651322      -0.28041657
Ti       6.49303688       3.24595477       3.19751746       0.01857217      -0.14858080       0.39732579
Ti       8.18342158       4.79494796       4.88700650      -0.10917705       0.28502999      -0.13181201
Ti       6.53406777       3.29474210       6.53366351      -0.06244295      -0.23251701      -0.20300284
Ti       8.14553766       4.94851157       8.13713468       0.05169754      -0.10381632       0.31803126
Ti       6.50406261       6.55873366      -0.00704226      -0.10797267      -0.17813494       0.15494661
Ti       8.18413189       8.22614535       1.59132469      -0.16260649      -0.35943277       0.04080425
Ti       6.60565125       6.52491175       3.23170060      -0.14211677      -0.05322847       0.08521774
Ti       8.13971450       8.10314980       4.86774913      -0.04241359       0.19817445       0.17995775
Ti       6.56966455       6.52942870       6.55175966       0.00931702       0.03132492      -0.18145293
Ti       8.19178482       8.07496452       8.21414714      -0.16343352       0.11509268      -0.29285486
54