2
Lattice="3.07174612311166 4.8358271276640005e-33 1.292569779745443e-38 -4.8358271276640005e-33 3.132065927997705 2.4469745848536564e-39 -9.904429894261153e-39 -1.1388437822992012e-38 3.132065927997705" Properties=species:S:1:pos:R:3:force:R:3:forces:R:3 config_type=FLD_bcc energy_TB=-11.663919235567363 energy=-11.994887713733414 free_energy=-11.994887713733414 pbc="T T T"
Ti      -0.06756990       0.00370537       0.02592513       0.63060275       0.01369300       0.07524059      -0.02360354      -0.29470703       0.17605817
Ti       1.63654867       1.57180623       1.60331433      -0.63060275      -0.01369300      -0.07524059       0.02360354       0.29470703      -0.17605817
2
Lattice="2.9736676962450197 4.8358271276640005e-33 1.292569779745443e-38 -4.8358271276640005e-33 3.132065927997705 2.4469745848536564e-39 -9.904429894261153e-39 -1.1388437822992012e-38 3.132065927997705" Properties=species:S:1:pos:R:3:force:R:3:forces:R:3 config_type=FLD_bcc energy_TB=-11.393852872607368 energy=-11.994887713733414 free_energy=-11.994887713733414 pbc="T T T"
Ti      -0.09994894      -0.01770845      -0.01047746       1.48091763       0.06692946      -0.04754381      -0.02360354      -0.29470703       0.17605817
Ti       1.64149896       1.56215586       1.53948378      -1.48091763      -0.06692946       0.04754381       0.02360354       0.29470703      -0.17605817
2
Lattice="3.132065927997705 4.8358271276640005e-33 1.292569779745443e-38 -4.8358271276640005e-33 3.132065927997705 -0.08407881736503095 -9.904429894261153e-39 -1.1388437822992012e-38 3.132065927997705" Properties=species:S:1:pos:R:3:force:R:3:forces:R:3 config_type=FLD_bcc energy_TB=-11.754618869525443 energy=-11.994887713733414 free_energy=-11.994887713733414 pbc="T T T"
Ti       0.01584453       0.03379624       0.02035994      -0.24965197       0.07751459       0.05268217      -0.02360354      -0.29470703       0.17605817
Ti       1.50711513       1.62211339       1.56070265       0.24965197      -0.07751459      -0.05268217       0.02360354       0.29470703      -0.17605817
2
Lattice="3.132065927997705 4.8358271276640005e-33 1.292569779745443e-38 -4.8358271276640005e-33 3.132065927997705 -0.08581535471571111 -9.904429894261153e-39 -1.1388437822992012e-38 3.132065927997705" Properties=species:S:1:pos:R:3:force:R:3:forces:R:3 config_type=FLD_bcc energy_TB=-11.733085594222343 energy=-11.994887713733414 free_energy=-11.994887713733414 pbc="T T T"
Ti      -0.00269927       0.12550450      -0.03760965      -0.13823013      -0.38722634       0.17033530      -0.02360354      -0.29470703       0.17605817
Ti       1.54248434       1.54000451       1.51967680       0.13823013       0.38722634      -0.17033530       0.02360354       0.29470703      -0.17605817
2
Lattice="3.132065927997705 -0.08636890162862093 1.292569779745443e-38 -4.8358271276640005e-33 3.132065927997705 2.4469745848536564e-39 -9.904429894261153e-39 -1.1388437822992012e-38 3.132065927997705" Properties=species:S:1:pos:R:3:force:R:3:forces:R:3 config_type=FLD_bcc energy_TB=-11.743478060082822 energy=-11.994887713733414 free_energy=-11.994887713733414 pbc="T T T"
Ti       0.03532010       0.01932297      -0.02189748      -0.20926127       0.06940363      -0.40109415      -0.02360354      -0.29470703       0.17605817
Ti       1.53759126       1.55822176       1.45672456       0.20926127      -0.06940363       0.40109415       0.02360354       0.29470703      -0.17605817
2
Lattice="3.132065927997705 4.8358271276640005e-33 1.292569779745443e-38 -4.8358271276640005e-33 3.048004489319576 2.4469745848536564e-39 -9.904429894261153e-39 -1.1388437822992012e-38 3.132065927997705" Properties=species:S:1:pos:R:3:force:R:3:forces:R:3 config_type=FLD_bcc energy_TB=-11.659984745719127 energy=-11.994887713733414 free_energy=-11.994887713733414 pbc="T T T"
Ti      -0.05060373      -0.01726461      -0.05596621       0.12413673       0.18177831       0.11610445      -0.02360354      -0.29470703       0.17605817
Ti       1.53626496       1.53353887       1.59096884      -0.12413673      -0.18177831      -0.11610445       0.02360354       0.29470703      -0.17605817
2
Lattice="3.132065927997705 4.8358271276640005e-33 1.292569779745443e-38 -4.8358271276640005e-33 3.076105659796379 2.4469745848536564e-39 -9.904429894261153e-39 -1.1388437822992012e-38 3.132065927997705" Properties=species:S:1:pos:R:3:force:R:3:forces:R:3 config_type=FLD_bcc energy_TB=-11.703690310416285 energy=-11.994887713733414 free_energy=-11.994887713733414 pbc="T T T"
Ti      -0.01295456      -0.02549737      -0.06750810      -0.10827231       0.02394432       0.09956559      -0.02360354      -0.29470703       0.17605817
Ti       1.52273025       1.52646280       1.52639152       0.10827231      -0.02394432      -0.09956559       0.02360354       0.29470703      -0.17605817
2
Lattice="3.132065927997705 4.8358271276640005e-33 1.292569779745443e-38 -4.8358271276640005e-33 3.132065927997705 2.4469745848536564e-39 -9.904429894261153e-39 -1.1388437822992012e-38 3.0770964916749635" Properties=species:S:1:pos:R:3:force:R:3:forces:R:3 config_type=FLD_bcc energy_TB=-11.696989912368048 energy=-11.994887713733414 free_energy=-11.994887713733414 pbc="T T T"
Ti       0.02024862       0.00736947      -0.04949090      -0.30930480       0.12371501       0.13689942      -0.02360354      -0.29470703       0.17605817
Ti       1.53652969       1.59310035       1.55526947       0.30930480      -0.12371501      -0.13689942       0.02360354       0.29470703      -0.17605817
2
Lattice="3.132065927997705 4.8358271276640005e-33 1.292569779745443e-38 -4.8358271276640005e-33 3.208344479125612 2.4469745848536564e-39 -9.904429894261153e-39 -1.1388437822992012e-38 3.132065927997705" Properties=species:S:1:pos:R:3:force:R:3:forces:R:3 config_type=FLD_bcc energy_TB=-11.826200629338484 energy=-11.994887713733414 free_energy=-11.994887713733414 pbc="T T T"
Ti       0.02301768      -0.07252740      -0.01510150       0.02556976       0.03794448       0.03325318      -0.02360354      -0.29470703       0.17605817
Ti       1.61715385       1.53833489       1.55700965      -0.02556976      -0.03794448      -0.03325318       0.02360354       0.29470703      -0.17605817
2
Lattice="3.1354443297404395 4.8358271276640005e-33 1.292569779745443e-38 -4.8358271276640005e-33 3.132065927997705 2.4469745848536564e-39 -9.904429894261153e-39 -1.1388437822992012e-38 3.132065927997705" Properties=species:S:1:pos:R:3:force:R:3:forces:R:3 config_type=FLD_bcc energy_TB=-11.729172352137395 energy=-11.994887713733414 free_energy=-11.994887713733414 pbc="T T T"
Ti      -0.03319289      -0.05043754       0.08909075      -0.43176942       0.31881297      -0.36128304      -0.02360354      -0.29470703       0.17605817
Ti       1.46831822       1.56458554       1.51376836       0.43176942      -0.31881297       0.36128304       0.02360354       0.29470703      -0.17605817
2
Lattice="3.132065927997705 4.8358271276640005e-33 1.292569779745443e-38 -4.8358271276640005e-33 3.132065927997705 2.4469745848536564e-39 -9.904429894261153e-39 -0.029684908286926832 3.132065927997705" Properties=species:S:1:pos:R:3:force:R:3:forces:R:3 config_type=FLD_bcc energy_TB=-11.741053989644515 energy=-11.994887713733414 free_energy=-11.994887713733414 pbc="T T T"
Ti      -0.02579598      -0.04753340      -0.02365341       0.38523188       0.25426513       0.11387865      -0.02360354      -0.29470703       0.17605817
Ti       1.61732643       1.59723135       1.55091446      -0.38523188      -0.25426513      -0.11387865       0.02360354       0.29470703      -0.17605817
2
Lattice="3.132065927997705 4.8358271276640005e-33 1.292569779745443e-38 -4.8358271276640005e-33 3.132065927997705 2.4469745848536564e-39 -9.904429894261153e-39 -1.1388437822992012e-38 3.14868019960932" Properties=species:S:1:pos:R:3:force:R:3:forces:R:3 config_type=FLD_bcc energy_TB=-11.772142262062737 energy=-11.994887713733414 free_energy=-11.994887713733414 pbc="T T T"
Ti      -0.01404733       0.01506492       0.01770276       0.01521193       0.18899952      -0.10747281      -0.02360354      -0.29470703       0.17605817
Ti       1.55441428       1.68488737       1.57472789      -0.01521193      -0.18899952       0.10747281       0.02360354       0.29470703      -0.17605817
2
Lattice="3.132065927997705 4.8358271276640005e-33 1.292569779745443e-38 -4.8358271276640005e-33 3.132065927997705 2.4469745848536564e-39 0.053800194005386416 -1.1388437822992012e-38 3.132065927997705" Properties=species:S:1:pos:R:3:force:R:3:forces:R:3 config_type=FLD_bcc energy_TB=-11.656290098675868 energy=-11.994887713733414 free_energy=-11.994887713733414 pbc="T T T"
Ti       0.07629548       0.02990434      -0.06993873      -0.79466508      -0.19541990       0.77012393      -0.02360354      -0.29470703       0.17605817
Ti       1.48618218       1.55149722       1.63084123       0.79466508       0.19541990      -0.77012393       0.02360354       0.29470703      -0.17605817
2
Lattice="3.132065927997705 -0.026422839603695 1.292569779745443e-38 -4.8358271276640005e-33 3.132065927997705 2.4469745848536564e-39 -9.904429894261153e-39 -1.1388437822992012e-38 3.132065927997705" Properties=species:S:1:pos:R:3:force:R:3:forces:R:3 config_type=FLD_bcc energy_TB=-11.748699023731909 energy=-11.994887713733414 free_energy=-11.994887713733414 pbc="T T T"
Ti      -0.04000281       0.08773333       0.06750710       0.15154466      -0.22121054      -0.20808119      -0.02360354      -0.29470703       0.17605817
Ti       1.57509663       1.57118264       1.57711058      -0.15154466       0.22121054       0.20808119       0.02360354       0.29470703      -0.17605817
2
Lattice="3.212326455840444 4.8358271276640005e-33 1.292569779745443e-38 -4.8358271276640005e-33 3.132065927997705 2.4469745848536564e-39 -9.904429894261153e-39 -1.1388437822992012e-38 3.132065927997705" Properties=species:S:1:pos:R:3:force:R:3:forces:R:3 config_type=FLD_bcc energy_TB=-11.828645315511922 energy=-11.994887713733414 free_energy=-11.994887713733414 pbc="T T T"
Ti      -0.02866517       0.05101671       0.02894356       0.00145310      -0.05109810       0.06266641      -0.02360354      -0.29470703       0.17605817
Ti       1.57848801       1.59621955       1.61184031      -0.00145310       0.05109810      -0.06266641       0.02360354       0.29470703      -0.17605817
2
Lattice="3.132065927997705 4.8358271276640005e-33 1.292569779745443e-38 -4.8358271276640005e-33 3.251469786232807 2.4469745848536564e-39 -9.904429894261153e-39 -1.1388437822992012e-38 3.132065927997705" Properties=species:S:1:pos:R:3:force:R:3:forces:R:3 config_type=FLD_bcc energy_TB=-11.842720286512064 energy=-11.994887713733414 free_energy=-11.994887713733414 pbc="T T T"
Ti      -0.02391869       0.02925418       0.01658824       0.22730396      -0.17017890       0.06334956      -0.02360354      -0.29470703       0.17605817
Ti       1.59968896       1.59176998       1.60103161      -0.22730396       0.17017890      -0.06334956       0.02360354       0.29470703      -0.17605817
2
Lattice="3.132065927997705 4.8358271276640005e-33 1.292569779745443e-38 -4.8358271276640005e-33 3.30568139515765 2.4469745848536564e-39 -9.904429894261153e-39 -1.1388437822992012e-38 3.132065927997705" Properties=species:S:1:pos:R:3:force:R:3:forces:R:3 config_type=FLD_bcc energy_TB=-11.862409721003099 energy=-11.994887713733414 free_energy=-11.994887713733414 pbc="T T T"
Ti       0.09259451      -0.05007531      -0.02329872      -0.18891446       0.17059206       0.29554283      -0.02360354      -0.29470703       0.17605817
Ti       1.60760353       1.65383904       1.62017527       0.18891446      -0.17059206      -0.29554283       0.02360354       0.29470703      -0.17605817
2
Lattice="3.132065927997705 4.8358271276640005e-33 1.292569779745443e-38 0.12848472317940304 3.132065927997705 2.4469745848536564e-39 -9.904429894261153e-39 -1.1388437822992012e-38 3.132065927997705" Properties=species:S:1:pos:R:3:force:R:3:forces:R:3 config_type=FLD_bcc energy_TB=-11.608625806018923 energy=-11.994887713733414 free_energy=-11.994887713733414 pbc="T T T"
Ti       0.05161837       0.09579114      -0.05173920      -0.84504958      -0.69342679       0.68563301      -0.02360354      -0.29470703       0.17605817
Ti       1.49926337       1.52007521       1.64190179       0.84504958       0.69342679      -0.68563301       0.02360354       0.29470703      -0.17605817
2
Lattice="3.132065927997705 4.8358271276640005e-33 1.292569779745443e-38 -4.8358271276640005e-33 3.132065927997705 2.4469745848536564e-39 0.11078763139723379 -1.1388437822992012e-38 3.132065927997705" Properties=species:S:1:pos:R:3:force:R:3:forces:R:3 config_type=FLD_bcc energy_TB=-11.751579178670987 energy=-11.994887713733414 free_energy=-11.994887713733414 pbc="T T T"
Ti      -0.01345747       0.03147931      -0.02361659      -0.13421862      -0.31143477       0.16061228      -0.02360354      -0.29470703       0.17605817
Ti       1.57705310       1.53901043       1.58392744       0.13421862       0.31143477      -0.16061228       0.02360354       0.29470703      -0.17605817
2
Lattice="3.132065927997705 4.8358271276640005e-33 1.292569779745443e-38 0.20395896407269964 3.132065927997705 2.4469745848536564e-39 -9.904429894261153e-39 -1.1388437822992012e-38 3.132065927997705" Properties=species:S:1:pos:R:3:force:R:3:forces:R:3 config_type=FLD_bcc energy_TB=-11.726512769606387 energy=-11.994887713733414 free_energy=-11.994887713733414 pbc="T T T"
Ti       0.02732538       0.05613702       0.03046697      -0.48502754      -0.26146540      -0.28313418      -0.02360354      -0.29470703       0.17605817
Ti       1.58871605       1.55757668       1.53707558       0.48502754       0.26146540       0.28313418       0.02360354       0.29470703      -0.17605817
2
Lattice="3.1440859178529594 4.854385674754817e-33 1.2975302997335012e-38 -4.854385674754817e-33 3.1440859178529594 2.456365386440266e-39 -9.94244031600448e-39 -0.13677494123532377 3.1440859178529594" Properties=species:S:1:pos:R:3:force:R:3:forces:R:3 config_type=FLD_bcc energy_TB=-11.724478603434987 energy=-11.994887713733414 free_energy=-11.994887713733414 pbc="T T T"
Ti      -0.02937547      -0.01473751       0.08439848       0.24833102       0.62209234      -0.41125593      -0.02360354      -0.29470703       0.17605817
Ti       1.58908897       1.60521232       1.51331302      -0.24833102      -0.62209234       0.41125593       0.02360354       0.29470703      -0.17605817
2
Lattice="3.1440859178529594 4.854385674754817e-33 1.2975302997335012e-38 -4.854385674754817e-33 3.1440859178529594 2.456365386440266e-39 -9.94244031600448e-39 -0.1002633157985845 3.1440859178529594" Properties=species:S:1:pos:R:3:force:R:3:forces:R:3 config_type=FLD_bcc energy_TB=-11.758602523644848 energy=-11.994887713733414 free_energy=-11.994887713733414 pbc="T T T"
Ti      -0.04799110      -0.04618906      -0.05398737       0.07484051       0.48769669       0.06380881      -0.02360354      -0.29470703       0.17605817
Ti       1.53553185       1.64567942       1.51956353      -0.07484051      -0.48769669      -0.06380881       0.02360354       0.29470703      -0.17605817
2
Lattice="3.1440859178529594 4.854385674754817e-33 1.2975302997335012e-38 -4.854385674754817e-33 3.1440859178529594 2.456365386440266e-39 -9.94244031600448e-39 -1.1432143450602181e-38 3.133577640826626" Properties=species:S:1:pos:R:3:force:R:3:forces:R:3 config_type=FLD_bcc energy_TB=-11.773490691775608 energy=-11.994887713733414 free_energy=-11.994887713733414 pbc="T T T"
Ti       0.00858082      -0.00421266      -0.01114075      -0.14160050       0.29246801      -0.20414128      -0.02360354      -0.29470703       0.17605817
Ti       1.49296109       1.61535379       1.52250252       0.14160050      -0.29246801       0.20414128       0.02360354       0.29470703      -0.17605817
2
Lattice="3.1440859178529594 4.854385674754817e-33 -0.15293396509932577 -4.854385674754817e-33 3.1440859178529594 2.456365386440266e-39 -9.94244031600448e-39 -1.1432143450602181e-38 3.1440859178529594" Properties=species:S:1:pos:R:3:force:R:3:forces:R:3 config_type=FLD_bcc energy_TB=-11.770644422198156 energy=-11.994887713733414 free_energy=-11.994887713733414 pbc="T T T"
Ti      -0.00662715      -0.05812816       0.01691727       0.13483786       0.04299256       0.58529272      -0.02360354      -0.29470703       0.17605817
Ti       1.57480669       1.52287453       1.62349162      -0.13483786      -0.04299256      -0.58529272       0.02360354       0.29470703      -0.17605817
2
Lattice="3.1440859178529594 4.854385674754817e-33 1.2975302997335012e-38 -0.18962206659738834 3.1440859178529594 2.456365386440266e-39 -9.94244031600448e-39 -1.1432143450602181e-38 3.1440859178529594" Properties=species:S:1:pos:R:3:force:R:3:forces:R:3 config_type=FLD_bcc energy_TB=-11.744856008738333 energy=-11.994887713733414 free_energy=-11.994887713733414 pbc="T T T"
Ti      -0.02577566       0.07267385      -0.03030012       0.47753228      -0.56556210       0.21981697      -0.02360354      -0.29470703       0.17605817
Ti       1.55084869       1.52357788       1.59167113      -0.47753228       0.56556210      -0.21981697       0.02360354       0.29470703      -0.17605817
2
Lattice="3.038195085815618 4.854385674754817e-33 1.2975302997335012e-38 -4.854385674754817e-33 3.1440859178529594 2.456365386440266e-39 -9.94244031600448e-39 -1.1432143450602181e-38 3.1440859178529594" Properties=species:S:1:pos:R:3:force:R:3:forces:R:3 config_type=FLD_bcc energy_TB=-11.661887024386656 energy=-11.994887713733414 free_energy=-11.994887713733414 pbc="T T T"
Ti       0.01309991      -0.00316813       0.05764988       0.21163550      -0.16979086      -0.34657014      -0.02360354      -0.29470703       0.17605817
Ti       1.58761054       1.51553763       1.54479539      -0.21163550       0.16979086       0.34657014       0.02360354       0.29470703      -0.17605817
2
Lattice="3.1440859178529594 4.854385674754817e-33 1.2975302997335012e-38 -4.854385674754817e-33 3.1440859178529594 2.456365386440266e-39 -0.05041077692320888 -1.1432143450602181e-38 3.1440859178529594" Properties=species:S:1:pos:R:3:force:R:3:forces:R:3 config_type=FLD_bcc energy_TB=-11.789321981804255 energy=-11.994887713733414 free_energy=-11.994887713733414 pbc="T T T"
Ti       0.10025417       0.01519529      -0.08035241       0.18931435      -0.17753834       0.18391352      -0.02360354      -0.29470703       0.17605817
Ti       1.70030459       1.55589316       1.54377728      -0.18931435       0.17753834      -0.18391352       0.02360354       0.29470703      -0.17605817
2
Lattice="3.1440859178529594 4.854385674754817e-33 1.2975302997335012e-38 0.018042355498415825 3.1440859178529594 2.456365386440266e-39 -9.94244031600448e-39 -1.1432143450602181e-38 3.1440859178529594" Properties=species:S:1:pos:R:3:force:R:3:forces:R:3 config_type=FLD_bcc energy_TB=-11.78305213922767 energy=-11.994887713733414 free_energy=-11.994887713733414 pbc="T T T"
Ti      -0.03092904      -0.03423502      -0.10454973      -0.16343134       0.13473359       0.24013938      -0.02360354      -0.29470703       0.17605817
Ti       1.52429012       1.55912711       1.58857091       0.16343134      -0.13473359      -0.24013938       0.02360354       0.29470703      -0.17605817
2
Lattice="3.1440859178529594 4.854385674754817e-33 1.2975302997335012e-38 -4.854385674754817e-33 3.1440859178529594 -0.008192072031242628 -9.94244031600448e-39 -1.1432143450602181e-38 3.1440859178529594" Properties=species:S:1:pos:R:3:force:R:3:forces:R:3 config_type=FLD_bcc energy_TB=-11.681722439823861 energy=-11.994887713733414 free_energy=-11.994887713733414 pbc="T T T"
Ti      -0.05722076      -0.17335739       0.12114857       0.14523801       0.80471175      -0.90387734      -0.02360354      -0.29470703       0.17605817
Ti       1.53845729       1.60910641       1.55480153      -0.14523801      -0.80471175       0.90387734       0.02360354       0.29470703      -0.17605817
2
Lattice="3.1440859178529594 0.010021606981935393 1.2975302997335012e-38 -4.854385674754817e-33 3.1440859178529594 2.456365386440266e-39 -9.94244031600448e-39 -1.1432143450602181e-38 3.1440859178529594" Properties=species:S:1:pos:R:3:force:R:3:forces:R:3 config_type=FLD_bcc energy_TB=-11.786024251096014 energy=-11.994887713733414 free_energy=-11.994887713733414 pbc="T T T"
Ti       0.02530143      -0.03804183       0.00503116      -0.19981619       0.15841022       0.14891792      -0.02360354      -0.29470703       0.17605817
Ti       1.53242973       1.58480637       1.62059528       0.19981619      -0.15841022      -0.14891792       0.02360354       0.29470703      -0.17605817
2
Lattice="3.1440859178529594 4.854385674754817e-33 1.2975302997335012e-38 -4.854385674754817e-33 3.1290291730700392 2.456365386440266e-39 -9.94244031600448e-39 -1.1432143450602181e-38 3.1440859178529594" Properties=species:S:1:pos:R:3:force:R:3:forces:R:3 config_type=FLD_bcc energy_TB=-11.763459209245378 energy=-11.994887713733414 free_energy=-11.994887713733414 pbc="T T T"
Ti      -0.07182580       0.07077077      -0.00423190       0.29505331      -0.15130981       0.24108415      -0.02360354      -0.29470703       0.17605817
Ti       1.58597376       1.58733697       1.63110834      -0.29505331       0.15130981      -0.24108415       0.02360354       0.29470703      -0.17605817
2
Lattice="3.1440859178529594 4.854385674754817e-33 1.2975302997335012e-38 -4.854385674754817e-33 3.1440859178529594 2.456365386440266e-39 0.006496767972047877 -1.1432143450602181e-38 3.1440859178529594" Properties=species:S:1:pos:R:3:force:R:3:forces:R:3 config_type=FLD_bcc energy_TB=-11.757352942788009 energy=-11.994887713733414 free_energy=-11.994887713733414 pbc="T T T"
Ti      -0.05650297      -0.05784535       0.08405942       0.40821281      -0.16946012      -0.43062999      -0.02360354      -0.29470703       0.17605817
Ti       1.64515825       1.47790699       1.56851855      -0.40821281       0.16946012       0.43062999       0.02360354       0.29470703      -0.17605817
2
Lattice="3.1440859178529594 4.854385674754817e-33 1.2975302997335012e-38 -4.854385674754817e-33 3.1440859178529594 2.456365386440266e-39 -9.94244031600448e-39 0.06231015875526377 3.1440859178529594" Properties=species:S:1:pos:R:3:force:R:3:forces:R:3 config_type=FLD_bcc energy_TB=-11.761917038541114 energy=-11.994887713733414 free_energy=-11.994887713733414 pbc="T T T"
Ti      -0.06484379       0.02009938      -0.09431225       0.09308804      -0.43175419       0.41686215      -0.02360354      -0.29470703       0.17605817
Ti       1.52301116       1.52067557       1.57708888      -0.09308804       0.43175419      -0.41686215       0.02360354       0.29470703      -0.17605817
2
Lattice="3.1440859178529594 4.854385674754817e-33 1.2975302997335012e-38 0.04412087417398546 3.1440859178529594 2.456365386440266e-39 -9.94244031600448e-39 -1.1432143450602181e-38 3.1440859178529594" Properties=species:S:1:pos:R:3:force:R:3:forces:R:3 config_type=FLD_bcc energy_TB=-11.797468921311962 energy=-11.994887713733414 free_energy=-11.994887713733414 pbc="T T T"
Ti       0.03017620       0.02362372      -0.03671952      -0.12435984      -0.12323703      -0.02235311      -0.02360354      -0.29470703       0.17605817
Ti       1.59335030       1.56498044       1.53128033       0.12435984       0.12323703       0.02235311       0.02360354       0.29470703      -0.17605817
2
Lattice="3.1440859178529594 4.854385674754817e-33 1.2975302997335012e-38 0.0626844262844184 3.1440859178529594 2.456365386440266e-39 -9.94244031600448e-39 -1.1432143450602181e-38 3.1440859178529594" Properties=species:S:1:pos:R:3:force:R:3:forces:R:3 config_type=FLD_bcc energy_TB=-11.759143371329655 energy=-11.994887713733414 free_energy=-11.994887713733414 pbc="T T T"
Ti      -0.00230057       0.11756357       0.04074704      -0.35251522      -0.25810200      -0.41288443      -0.02360354      -0.29470703       0.17605817
Ti       1.53494309       1.59242953       1.52570459       0.35251522       0.25810200       0.41288443       0.02360354       0.29470703      -0.17605817
2
Lattice="3.1440859178529594 4.854385674754817e-33 1.2975302997335012e-38 -4.854385674754817e-33 3.1440859178529594 2.456365386440266e-39 -9.94244031600448e-39 -1.1432143450602181e-38 3.223697619392899" Properties=species:S:1:pos:R:3:force:R:3:forces:R:3 config_type=FLD_bcc energy_TB=-11.795890363506123 energy=-11.994887713733414 free_energy=-11.994887713733414 pbc="T T T"
Ti       0.10964402      -0.00325414       0.01347916      -0.57322912       0.26275563      -0.41087703      -0.02360354      -0.29470703       0.17605817
Ti       1.56986932       1.62077396       1.48541326       0.57322912      -0.26275563       0.41087703       0.02360354       0.29470703      -0.17605817
2
Lattice="3.1440859178529594 0.1560806691104173 1.2975302997335012e-38 -4.854385674754817e-33 3.1440859178529594 2.456365386440266e-39 -9.94244031600448e-39 -1.1432143450602181e-38 3.1440859178529594" Properties=species:S:1:pos:R:3:force:R:3:forces:R:3 config_type=FLD_bcc energy_TB=-11.78812908861757 energy=-11.994887713733414 free_energy=-11.994887713733414 pbc="T T T"
Ti       0.02097623      -0.05643937      -0.02504902       0.20083015      -0.19985591       0.26258056      -0.02360354      -0.29470703       0.17605817
Ti       1.62801869       1.56193289       1.60803719      -0.20083015       0.19985591      -0.26258056       0.02360354       0.29470703      -0.17605817
2
Lattice="3.1440859178529594 4.854385674754817e-33 1.2975302997335012e-38 -4.854385674754817e-33 3.1440859178529594 2.456365386440266e-39 -9.94244031600448e-39 -1.1432143450602181e-38 3.2579802940853497" Properties=species:S:1:pos:R:3:force:R:3:forces:R:3 config_type=FLD_bcc energy_TB=-11.861711680197102 energy=-11.994887713733414 free_energy=-11.994887713733414 pbc="T T T"
Ti      -0.00524786      -0.09454249      -0.06740120       0.09063246       0.20056858       0.06288935      -0.02360354      -0.29470703       0.17605817
Ti       1.58249559       1.58096854       1.57256105      -0.09063246      -0.20056858      -0.06288935       0.02360354       0.29470703      -0.17605817
2
Lattice="3.1440859178529594 4.854385674754817e-33 1.2975302997335012e-38 -4.854385674754817e-33 3.1440859178529594 0.2009188355731079 -9.94244031600448e-39 -1.1432143450602181e-38 3.1440859178529594" Properties=species:S:1:pos:R:3:force:R:3:forces:R:3 config_type=FLD_bcc energy_TB=-11.791100844002779 energy=-11.994887713733414 free_energy=-11.994887713733414 pbc="T T T"
Ti      -0.04947870      -0.01408744      -0.03015439      -0.08180626       0.08535122      -0.48640513      -0.02360354      -0.29470703       0.17605817
Ti       1.50207256       1.57036447       1.56949748       0.08180626      -0.08535122       0.48640513       0.02360354       0.29470703      -0.17605817
2
Lattice="3.1440859178529594 4.854385674754817e-33 1.2975302997335012e-38 0.09284633484606933 3.1440859178529594 2.456365386440266e-39 -9.94244031600448e-39 -1.1432143450602181e-38 3.1440859178529594" Properties=species:S:1:pos:R:3:force:R:3:forces:R:3 config_type=FLD_bcc energy_TB=-11.782186423463676 energy=-11.994887713733414 free_energy=-11.994887713733414 pbc="T T T"
Ti      -0.05825075       0.04564384       0.03976005       0.25898523       0.25198064       0.09812531      -0.02360354      -0.29470703       0.17605817
Ti       1.61574352       1.68715089       1.63736470      -0.25898523      -0.25198064      -0.09812531       0.02360354       0.29470703      -0.17605817
2
Lattice="3.1561059077082136 4.872944221845632e-33 -0.15596101508879484 -4.872944221845632e-33 3.1561059077082136 2.4657561880268752e-39 -9.980450737747806e-39 -1.1475849078212346e-38 3.1561059077082136" Properties=species:S:1:pos:R:3:force:R:3:forces:R:3 config_type=FLD_bcc energy_TB=-11.768901008290136 energy=-11.994887713733414 free_energy=-11.994887713733414 pbc="T T T"
Ti       0.07025085       0.00626997       0.10300664      -0.59324949      -0.39340161      -0.03372126      -0.02360354      -0.29470703       0.17605817
Ti       1.48744714       1.51387031       1.62014964       0.59324949       0.39340161       0.03372126       0.02360354       0.29470703      -0.17605817
2
Lattice="3.061963134127102 4.872944221845632e-33 1.3024908197215593e-38 -4.872944221845632e-33 3.1561059077082136 2.4657561880268752e-39 -9.980450737747806e-39 -1.1475849078212346e-38 3.1561059077082136" Properties=species:S:1:pos:R:3:force:R:3:forces:R:3 config_type=FLD_bcc energy_TB=-11.680475655356672 energy=-11.994887713733414 free_energy=-11.994887713733414 pbc="T T T"
Ti      -0.06339766      -0.01133739       0.03323130       0.63122791       0.37599210      -0.25582601      -0.02360354      -0.29470703       0.17605817
Ti       1.59565731       1.65889641       1.53883087      -0.63122791      -0.37599210       0.25582601       0.02360354       0.29470703      -0.17605817
2
Lattice="3.030051386928413 4.872944221845632e-33 1.3024908197215593e-38 -4.872944221845632e-33 3.1561059077082136 2.4657561880268752e-39 -9.980450737747806e-39 -1.1475849078212346e-38 3.1561059077082136" Properties=species:S:1:pos:R:3:force:R:3:forces:R:3 config_type=FLD_bcc energy_TB=-11.671362009679118 energy=-11.994887713733414 free_energy=-11.994887713733414 pbc="T T T"
Ti      -0.06686982       0.00160056      -0.01785288       0.53200067       0.12900370       0.11932121      -0.02360354      -0.29470703       0.17605817
Ti       1.58466305       1.60046160       1.57944650      -0.53200067      -0.12900370      -0.11932121       0.02360354       0.29470703      -0.17605817
2
Lattice="3.1561059077082136 4.872944221845632e-33 1.3024908197215593e-38 -0.12858979429550413 3.1561059077082136 2.4657561880268752e-39 -9.980450737747806e-39 -1.1475849078212346e-38 3.1561059077082136" Properties=species:S:1:pos:R:3:force:R:3:forces:R:3 config_type=FLD_bcc energy_TB=-11.784830164158652 energy=-11.994887713733414 free_energy=-11.994887713733414 pbc="T T T"