2
Lattice="3.2625686749976093 5.037319924650001e-33 1.3464268539015032e-38 -5.037319924650001e-33 3.2625686749976093 2.548931859222559e-39 -1.0317114473188701e-38 -1.186295606561668e-38 3.2625686749976093" Properties=species:S:1:pos:R:3:forces:R:3 Minim_Constant_Volume=F n_minim_iter=2 energy=-11.935651721487151 stress="0.0029648752501008854 -0.00010028499673482897 -0.00011591705742132519 -0.00010028499673482897 0.002964875250098916 -0.00011591705741067135 -0.00011591705742132519 -0.00011591705741067135 0.002964874853913616" free_energy=-11.935651721487151 config_type=bcc pbc="T T T"
Ti       0.00000000       0.00000000       0.00000000       0.00000000      -0.00000000       0.00000000
Ti       1.63128434       1.63128434       1.63128434      -0.00000000       0.00000000      -0.00000000
