54
Lattice="9.787706024992827 1.5111959773950004e-32 4.0392805617045097e-38 -1.5111959773950004e-32 9.787706024992827 7.646795577667676e-39 -3.09513434195661e-38 -3.558886819685004e-38 19.575412049985655" Properties=species:S:1:pos:R:3:forces:R:3 Minim_Constant_Volume=F n_minim_iter=2 energy=-11.935651721487151 stress="0.0029648752501008854 -0.00010028499673482897 -0.00011591705742132519 -0.00010028499673482897 0.002964875250098916 -0.00011591705741067135 -0.00011591705742132519 -0.00011591705741067135 0.002964874853913616" free_energy=-11.935651721487151 config_type=bcc_surf pbc="T T T"
Ti       0.00000000       0.00000000       0.00000000       0.00000000      -0.00000000       0.00000000
Ti       1.63128434       1.63128434       1.63128434      -0.00000000       0.00000000      -0.00000000
Ti      -0.00000000      -0.00000000       3.26256867       0.00000000      -0.00000000       0.00000000
Ti       1.63128434       1.63128434       4.89385301      -0.00000000       0.00000000      -0.00000000
Ti      -0.00000000      -0.00000000       6.52513735       0.00000000      -0.00000000       0.00000000
Ti       1.63128434       1.63128434       8.15642169      -0.00000000       0.00000000      -0.00000000
Ti      -0.00000000       3.26256867       0.00000000       0.00000000      -0.00000000       0.00000000
Ti       1.63128434       4.89385301       1.63128434      -0.00000000       0.00000000      -0.00000000
Ti      -0.00000000       3.26256867       3.26256867       0.00000000      -0.00000000       0.00000000
Ti       1.63128434       4.89385301       4.89385301      -0.00000000       0.00000000      -0.00000000
Ti      -0.00000000       3.26256867       6.52513735       0.00000000      -0.00000000       0.00000000
Ti       1.63128434       4.89385301       8.15642169      -0.00000000       0.00000000      -0.00000000
Ti      -0.00000000       6.52513735       0.00000000       0.00000000      -0.00000000       0.00000000
Ti       1.63128434       8.15642169       1.63128434      -0.00000000       0.00000000      -0.00000000
Ti      -0.00000000       6.52513735       3.26256867       0.00000000      -0.00000000       0.00000000
Ti       1.63128434       8.15642169       4.89385301      -0.00000000       0.00000000      -0.00000000
Ti      -0.00000000       6.52513735       6.52513735       0.00000000      -0.00000000       0.00000000
Ti       1.63128434       8.15642169       8.15642169      -0.00000000       0.00000000      -0.00000000
Ti       3.26256867       0.00000000       0.00000000       0.00000000      -0.00000000       0.00000000
Ti       4.89385301       1.63128434       1.63128434      -0.00000000       0.00000000      -0.00000000
Ti       3.26256867       0.00000000       3.26256867       0.00000000      -0.00000000       0.00000000
Ti       4.89385301       1.63128434       4.89385301      -0.00000000       0.00000000      -0.00000000
Ti       3.26256867       0.00000000       6.52513735       0.00000000      -0.00000000       0.00000000
Ti       4.89385301       1.63128434       8.15642169      -0.00000000       0.00000000      -0.00000000
Ti       3.26256867       3.26256867       0.00000000       0.00000000      -0.00000000       0.00000000
Ti       4.89385301       4.89385301       1.63128434      -0.00000000       0.00000000      -0.00000000
Ti       3.26256867       3.26256867       3.26256867       0.00000000      -0.00000000       0.00000000
Ti       4.89385301       4.89385301       4.89385301      -0.00000000       0.00000000      -0.00000000
Ti       3.26256867       3.26256867       6.52513735       0.00000000      -0.00000000       0.00000000
Ti       4.89385301       4.89385301       8.15642169      -0.00000000       0.00000000      -0.00000000
Ti       3.26256867       6.52513735       0.00000000       0.00000000      -0.00000000       0.00000000
Ti       4.89385301       8.15642169       1.63128434      -0.00000000       0.00000000      -0.00000000
Ti       3.26256867       6.52513735       3.26256867       0.00000000      -0.00000000       0.00000000
Ti       4.89385301       8.15642169       4.89385301      -0.00000000       0.00000000      -0.00000000
Ti       3.26256867       6.52513735       6.52513735       0.00000000      -0.00000000       0.00000000
Ti       4.89385301       8.15642169       8.15642169      -0.00000000       0.00000000      -0.00000000
Ti       6.52513735       0.00000000       0.00000000       0.00000000      -0.00000000       0.00000000
Ti       8.15642169       1.63128434       1.63128434      -0.00000000       0.00000000      -0.00000000
Ti       6.52513735       0.00000000       3.26256867       0.00000000      -0.00000000       0.00000000
Ti       8.15642169       1.63128434       4.89385301      -0.00000000       0.00000000      -0.00000000
Ti       6.52513735       0.00000000       6.52513735       0.00000000      -0.00000000       0.00000000
Ti       8.15642169       1.63128434       8.15642169      -0.00000000       0.00000000      -0.00000000
Ti       6.52513735       3.26256867       0.00000000       0.00000000      -0.00000000       0.00000000
Ti       8.15642169       4.89385301       1.63128434      -0.00000000       0.00000000      -0.00000000
Ti       6.52513735       3.26256867       3.26256867       0.00000000      -0.00000000       0.00000000
Ti       8.15642169       4.89385301       4.89385301      -0.00000000       0.00000000      -0.00000000
Ti       6.52513735       3.26256867       6.52513735       0.00000000      -0.00000000       0.00000000
Ti       8.15642169       4.89385301       8.15642169      -0.00000000       0.00000000      -0.00000000
Ti       6.52513735       6.52513735       0.00000000       0.00000000      -0.00000000       0.00000000
Ti       8.15642169       8.15642169       1.63128434      -0.00000000       0.00000000      -0.00000000
Ti       6.52513735       6.52513735       3.26256867       0.00000000      -0.00000000       0.00000000
Ti       8.15642169       8.15642169       4.89385301      -0.00000000       0.00000000      -0.00000000
Ti       6.52513735       6.52513735       6.52513735       0.00000000      -0.00000000       0.00000000
Ti       8.15642169       8.15642169       8.15642169      -0.00000000       0.00000000      -0.00000000
