2
Lattice="2.956909498894555 -9.475156642022708e-16 3.7748146524419406e-39 -1.4784547494472766 2.5607587427341993 2.5543875922833877e-25 1.8246869331877513e-39 -4.770220409866336e-25 4.782118287857242" Properties=species:S:1:pos:R:3:forces:R:3 n_minim_iter=3 energy=-12.142030784357146 stress="0.011925474615731652 -0.006796880110651804 -9.189171029392078e-07 -0.006796880110651804 0.0040759395144279505 -1.5041615233265757e-06 -9.189171029392078e-07 -1.5041615233265757e-06 -0.005067852181583562" free_energy=-12.142030784357146 config_type=hcp pbc="T T T"
Ti      -0.00000000       0.00000000       0.00000000       0.03117958      -0.01800336       0.00000488
Ti       0.00000000       1.70717250       2.39105914      -0.03117958       0.01800336      -0.00000488
