54
Lattice="9.396197783993115 1.4507481382992003e-32 3.8777093392363294e-38 -1.4507481382992003e-32 9.396197783993115 7.340923754560969e-39 -2.971328968278346e-38 -0.22262705121318074 9.396197783993115" Properties=species:S:1:pos:R:3:forces:R:3:force:R:3 Minim_Constant_Volume=F n_minim_iter=2 energy=-318.9323986664736 stress="0.06538085377947928 0.0001681469675679313 0.0009488247525921657 0.0001681469675679313 0.06434715478505293 -0.00025689499700848805 0.0009488247525921657 -0.00025689499700848805 0.06522908442541281" free_energy=-318.9323986664736 virial="90.58900598101195 3.1853319035591343 3.751719294633261 3.1853319035591343 87.40907644468243 4.900925028432074 3.751719294633261 4.900925028432074 86.48120192856868" config_type=FLD_bcc pbc="T T T"
Ti      -0.08065616       0.01999136      -0.16346196       0.69292091      -0.70457554      -0.60668199       0.40757496       0.35591181       1.06174987
Ti       1.49173372       1.60932134       1.63310030      -0.11651633       0.74951692      -0.00501640      -0.06326154      -0.43921902      -0.66826855
Ti      -0.08790918       0.06544307       3.21938136      -0.28112935      -0.95808408       0.53400524       0.53876392      -0.03895143      -0.63154807
Ti       1.53495774       1.59380466       4.80547165      -0.25140983       0.30071897      -0.83168137      -0.14741420      -0.03697000      -0.58461820
Ti      -0.22883310       0.06222726       6.18793508       0.01704321      -0.52568838       0.73615523       0.87070663       0.05284878       0.18700688
Ti       1.67996676       1.40013871       7.75708543      -0.60984413       0.05502284      -0.13334767      -0.29807528       0.26496425       0.31559573
Ti       0.03579892       3.18303557       0.00708818      -0.38690735       0.26474052       0.22163224      -0.20329314       0.41426266      -0.01282423
Ti       1.52828566       4.67476826       1.57982393       0.43022754       0.39876191      -0.91050573       0.20972738       0.23005656       0.19947508
Ti       0.04593119       3.16027459       3.20042152      -0.50884888      -0.19448274       0.41882890      -0.56072224      -0.08328906      -0.17384110
Ti       1.63108884       4.64456334       4.73482828       0.94816265       0.59719598      -0.41506747      -0.13869768       0.12907056      -0.19411653
Ti       0.11987649       3.12669620       6.23169258      -0.36942112      -0.54554519       0.06201269      -0.37685758       0.40023680       0.44731861
Ti       1.66432962       4.71700999       7.80280181       0.50101660       0.64138438       0.49424808      -0.78040244      -0.28174888      -0.05431561
Ti      -0.02345124       6.34938634      -0.00087936       0.51626944       0.11599365       0.20596589       0.00783596      -0.15570933      -0.14444362
Ti       1.48056397       7.81109940       1.47344439       0.16303771      -0.25422291      -0.28780244       0.03640242       0.32579582       0.43561170
Ti      -0.08231928       6.27530138       3.29742901      -0.08163090       0.27512604      -0.16296159       0.80638836      -0.36328551      -0.63481990
Ti       1.53209442       7.85573922       4.85425436       0.46649513       0.33552510       0.04109918       0.21709067      -0.22648543      -0.19948429
Ti      -0.10045518       6.46063002       6.30925323       0.86158233       0.03713828      -0.52061499       0.66670583      -0.83303128      -0.02727903
Ti       1.62856268       7.79805793       7.84915204       0.00951710       0.15952360       0.30268722      -0.33626674      -0.22878397      -0.45641593
Ti       3.14587894      -0.01486416      -0.15520443      -1.22434884      -0.03214193       0.24844845       0.09779278       0.29036408       0.96461781
Ti       4.68313087       1.55121406       1.70734418       0.08474187      -0.24270359      -0.18378039      -0.21215253      -0.24063015      -1.08453873
Ti       3.07590000      -0.08210289       3.14599221      -0.13618724      -0.58130051      -0.06271077      -0.29494193       0.01661972      -0.06083752
Ti       4.75745425       1.61925890       4.49777047      -0.63803260      -0.56569538       0.34175766       0.05178077      -0.37392630       0.95632306
Ti       3.04072956       0.06001327       6.27818459      -0.34998800      -0.25120297       0.36576086       0.94838278      -0.02846048      -0.06828232
Ti       4.58746211       1.56905716       7.81222840      -0.46843457      -0.81417361      -0.49995046       0.90699046      -0.34385326       0.06109624
Ti       3.13967325       3.25667706      -0.00593170      -0.14007629       0.01501661       0.16135694      -0.27121984      -0.38425632       0.27726790
Ti       4.58418167       4.73305577       1.52452357       0.05143701      -0.73217447       0.57260514       0.25813212       0.14479726       0.19313735
Ti       3.09792883       2.91293954       3.08195309      -0.29946247       0.92346396       0.34807145       0.01357084       1.04757583       0.06540739
Ti       4.76673867       4.74039985       4.79742847      -0.24694805      -0.63387251       0.00045644      -0.42386994      -0.64859818      -0.57472645
Ti       3.13498577       3.07639743       6.30309790       0.60766364       0.47762759      -0.09173048       0.49081216       0.37531871       0.11075967
Ti       4.62460354       4.87842608       7.99483866      -0.80723280      -0.41560436      -0.58107381      -2.02464367      -2.77801844      -2.03462111
Ti       3.17994962       6.43456590      -0.15013870      -0.46064300      -0.99127608      -0.08360559      -0.19368359      -0.06656142       0.77690260
Ti       4.77978197       7.83341579       1.60485532      -0.20374769       0.96330629       0.55136338      -0.09597756      -0.37537659      -0.47100899
Ti       3.14106435       6.33768573       3.21613244      -0.52582740      -0.99097948       0.25474549      -0.22421711       0.07491029      -0.31816572
Ti       4.54095262       7.70606436       4.66203089      -0.54487896       0.25708120      -0.04187221       0.18532241       0.60770979      -0.00240576
Ti       3.26813931       6.09687670       6.25368766       0.30350916      -0.31765584      -0.17316867      -0.72512024       0.66022581       0.19280673
Ti       4.74208856       7.78776477       7.99119136       0.17251872       0.58717083      -0.45814216       0.07269179       0.31337637      -0.86510869
Ti       6.33612421       0.01282051       0.02770827      -0.00817648       0.08126398      -0.14998606      -0.12615006       0.38091117       0.18423561
Ti       7.66180037       1.54557550       1.57277486       0.20949030      -0.42704877      -0.08198886       0.95593224       0.37421443      -0.23086773
Ti       6.23391072       0.03638133       3.02680959       0.73531234       0.43405223      -1.01831270       0.51062725      -0.67934419       0.35944760
Ti       7.92122334       1.46299718       4.84565212       0.22060428       0.11059139       0.12778732      -0.67136448       0.51048095      -0.26671162
Ti       6.32441762      -0.09527864       6.26708014      -0.04832250      -0.68940544      -0.22715167      -0.98185206       0.57123456       0.04131353
Ti       7.91786842       1.44780975       7.92796359       0.67061506      -0.88898600      -0.21022131      -0.64331138       0.58479908      -0.23879121
Ti       6.34128401       3.18102232       0.08275360       0.36417864       1.17931503       1.03598077      -0.47693364       0.46790420      -0.57193996
Ti       7.70165058       4.79815361       1.59156410      -0.23105940      -0.22261438      -0.34167129       0.32632686      -0.35619374       0.06593161
Ti       6.09907299       3.10373717       3.16286620       0.92806716       0.14664387      -1.02000305       0.57658262       0.23339963       0.21190545
Ti       7.80045288       4.83375986       4.59512916      -0.19916359       0.13194945       0.80603527       0.12473628      -0.77338529       0.42093101
Ti       6.29392866       3.18679340       6.18786706       0.19172257       0.92097006       0.39945918       0.09231339      -0.31544284       0.59861571
Ti       7.85221952       4.79269489       7.67118003      -0.14640878       0.59823979      -0.02969137       0.26779730      -1.00460301       0.12365514
Ti       6.22849446       6.12645398      -0.28643086       0.45842893       0.44790770      -0.25993638       2.88724736       2.06625662       2.93069133
Ti       8.02224348       7.75222696       1.62031319      -0.02917534      -0.20702557       0.94904326      -0.92828348       0.13409398      -0.35929066
Ti       6.20179501       6.22982437       3.26855222      -0.04617514       0.51503889       0.08505835       0.03077257       0.26412002      -0.69758129
Ti       7.90120019       7.90452866       4.70188627      -0.10804932       0.16695882      -0.29211665      -0.78603848       0.12393627      -0.29731803
Ti       6.24360550       6.26842085       6.16958507      -0.87782420       0.26039566       0.28678424      -0.07963213       0.35724454       0.31065038
Ti       7.86082020       7.80543265       7.68016085       0.74130824       0.03881818       0.12944468      -0.49462518      -0.71651640       0.43171687
54
Lattice="9.396197783993115 1.4507481382992003e-32 3.8777093392363294e-38 -1.4507481382992003e-32 9.396197783993115 -0.18656535801275717 -2.971328968278346e-38 -3.416531346897604e-38 9.396197783993115" Properties=species:S:1:pos:R:3:forces:R:3:force:R:3 Minim_Constant_Volume=F n_minim_iter=2 energy=-318.9323986664736 stress="0.06538085377947928 0.0001681469675679313 0.0009488247525921657 0.0001681469675679313 0.06434715478505293 -0.00025689499700848805 0.0009488247525921657 -0.00025689499700848805 0.06522908442541281" free_energy=-318.9323986664736 virial="88.79503835341109 -0.32931658733779684 -0.7088063369529681 -0.32931658733779684 87.20638093948499 1.4685526024844195 -0.7088063369529681 1.4685526024844195 84.67935164270502" config_type=FLD_bcc pbc="T T T"
Ti      -0.01075583       0.05849965       0.08324957       0.69292091      -0.70457554      -0.60668199       0.40567290       0.19139048       0.04322023
Ti       1.75474050       1.47520270       1.60713347      -0.11651633       0.74951692      -0.00501640      -0.53443716       0.25153943       0.13018172
Ti      -0.00538796       0.05714784       3.31955348      -0.28112935      -0.95808408       0.53400524      -0.00143036       0.40771915      -0.23497372
Ti       1.55643824       1.32573418       4.61170308      -0.25140983       0.30071897      -0.83168137      -0.35309502       1.04717734       0.46161201
Ti      -0.09846233      -0.06811864       6.22954572       0.01704321      -0.52568838       0.73615523       0.25824562       0.31734594       0.59183825
Ti       1.53459041       1.58055323       7.90935557      -0.60984413       0.05502284      -0.13334767      -0.07935772      -0.07871845      -0.68205759
Ti       0.02676554       2.97430017       0.04201800      -0.38690735       0.26474052       0.22163224       0.27521481       0.75867224       0.35599208
Ti       1.59328381       4.79147167       1.49340597       0.43022754       0.39876191      -0.91050573       0.38021924      -0.24990172       0.61984822
Ti       0.06469031       3.13858892       3.16341111      -0.50884888      -0.19448274       0.41882890      -0.51359474      -0.08451678      -0.33104945
Ti       1.58908609       4.69290044       4.71358535       0.94816265       0.59719598      -0.41506747      -0.48905675      -0.08294488      -0.30049850
Ti      -0.06326913       3.11258060       6.42612783      -0.36942112      -0.54554519       0.06201269       0.53677801      -0.15501423      -0.93639461
Ti       1.53480622       4.84958967       7.73191174       0.50101660       0.64138438       0.49424808      -0.64815442      -0.58316342       0.15520089
Ti       0.03207939       6.15485103       0.12755941       0.51626944       0.11599365       0.20596589      -0.17345352       0.56493517      -0.04740635
Ti       1.59142031       7.91068309       1.43836372       0.16303771      -0.25422291      -0.28780244       0.19578231      -0.54821116       0.30135675
Ti       0.05892361       6.31408346       3.01821190      -0.08163090       0.27512604      -0.16296159       0.11458163      -0.10942659      -0.20512639
Ti       1.58925040       7.88138936       4.78391356       0.46649513       0.33552510       0.04109918      -0.11368388      -0.10270910      -1.06766032
Ti      -0.15129139       6.25627738       6.10483776       0.86158233       0.03713828      -0.52061499       0.31818236      -0.04877803       0.44899517
Ti       1.64275327       7.90764489       7.79163216       0.00951710       0.15952360       0.30268722      -1.22019693      -0.31635045      -0.29913620
Ti       3.13531337       0.05127604      -0.12177290      -1.22434884      -0.03214193       0.24844845       0.19361835      -0.12669296       0.70012688
Ti       4.67285898       1.61162895       1.43682407       0.08474187      -0.24270359      -0.18378039       0.30984739       0.37192567       0.55316555
Ti       3.21278886       0.14903903       3.02244896      -0.13618724      -0.58130051      -0.06271077       0.23176631      -0.81968524       0.36421691
Ti       4.60511827       1.43235109       4.82104557      -0.63803260      -0.56569538       0.34175766       0.43890498       1.09015423      -0.13077760
Ti       3.15783455      -0.10609275       6.32172219      -0.34998800      -0.25120297       0.36576086      -0.20415312       0.84940745       0.59556167
Ti       4.74495965       1.63172814       8.05770538      -0.46843457      -0.81417361      -0.49995046      -0.34260034      -0.04704526      -1.15624364
Ti       3.12556570       3.16767532      -0.13054805      -0.14007629       0.01501661       0.16135694      -0.19144406       0.32967180       0.50407854
Ti       4.76098989       4.68002645       1.71307316       0.05143701      -0.73217447       0.57260514      -0.42382266       0.45480234      -0.49448690
Ti       3.11026549       3.16324396       3.18202522      -0.29946247       0.92346396       0.34807145       0.20815779      -0.37573226       0.11085607
Ti       4.86783318       4.65108170       4.71781192      -0.24694805      -0.63387251       0.00045644      -0.75343761      -0.29705829       0.25965775
Ti       2.96771898       3.33190331       6.37040642       0.60766364       0.47762759      -0.09173048       0.63031129      -1.04798713      -0.49984569
Ti       4.58314979       4.87159939       7.89061494      -0.80723280      -0.41560436      -0.58107381       0.08524845      -0.20795078       0.12102490
Ti       3.08429769       6.21932421      -0.26867192      -0.46064300      -0.99127608      -0.08360559       0.75705443      -0.00336183       1.27716982
Ti       4.87919676       7.78706594       1.59028139      -0.20374769       0.96330629       0.55136338      -0.75237151      -0.20572799      -0.57363514
Ti       3.22444301       6.32412860       3.28061561      -0.52582740      -0.99097948       0.25474549      -0.35766902      -0.19176509      -0.57396623
Ti       4.65712618       7.89009094       4.84664589      -0.54487896       0.25708120      -0.04187221       0.16037408       0.37720802      -0.57830038
Ti       3.01134139       6.30737442       6.27402377       0.30350916      -0.31765584      -0.17316867       0.65014117       0.00507253      -0.38027997
Ti       4.60340733       7.94508613       7.86899591       0.17251872       0.58717083      -0.45814216       0.39138014      -0.60004819      -0.52683779
Ti       6.18655739       0.00547851       0.00275913      -0.00817648       0.08126398      -0.14998606       0.52859886      -0.21071131       0.16540552
Ti       7.78274297       1.66878489       1.39096435       0.20949030      -0.42704877      -0.08198886       0.16133770      -0.35159078       1.40290434
Ti       6.23420347      -0.03091533       3.21898544       0.73531234       0.43405223      -1.01831270       0.07884156       0.69548261       0.06175366
Ti       7.70381130       1.57071897       4.89899079       0.22060428       0.11059139       0.12778732      -0.12936047       0.31869351      -0.58693113
Ti       6.17560311      -0.12808038       6.25117165      -0.04832250      -0.68940544      -0.22715167       0.17033900       0.28550122       0.61909707
Ti       7.88557879       1.59935289       7.95501689       0.67061506      -0.88898600      -0.21022131      -0.22428163      -0.77739501      -0.75170988
Ti       6.34282564       3.08335795      -0.10437432       0.36417864       1.17931503       1.03598077      -0.73144132       0.61901353       0.04655625
Ti       7.65944142       4.71786464       1.41775364      -0.23105940      -0.22261438      -0.34167129       0.70659812      -0.00845516       0.69037676
Ti       6.31927624       3.26095830       3.11829998       0.92806716       0.14664387      -1.02000305       0.14606346      -0.89431432       0.06378135
Ti       7.85988493       4.79716102       4.73190453      -0.19916359       0.13194945       0.80603527       0.25145904      -0.53229860      -0.07661392
Ti       6.31567269       3.18244901       6.44745107       0.19172257       0.92097006       0.39945918      -0.44582389      -0.14897171      -0.32853311
Ti       7.88343707       4.59629937       7.81750655      -0.14640878       0.59823979      -0.02969137      -0.03835187       0.67396836       0.32154792
Ti       6.15809765       6.41449519       0.05764119       0.45842893       0.44790770      -0.25993638       0.39729977      -0.03074504      -0.21592666
Ti       7.87026209       8.00705085       1.37356858      -0.02917534      -0.20702557       0.94904326      -0.03664899      -0.50766294       0.66282671
Ti       6.28105038       6.35137087       3.30381659      -0.04617514       0.51503889       0.08505835       0.11086392      -0.18149738      -0.71496562
Ti       7.86275532       7.72032092       4.65456605      -0.10804932       0.16695882      -0.29211665      -0.22587536       0.10788800      -0.32074135
Ti       6.21549408       6.14803669       6.28301632      -0.87782420       0.26039566       0.28678424       0.41772201       0.56196667       0.46024028
Ti       7.95042479       7.80906029       7.83086561       0.74130824       0.03881818       0.12944468      -0.52686236      -0.35310362      -0.07449514
54
Lattice="9.61758440156196 1.4507481382992003e-32 3.8777093392363294e-38 -1.4507481382992003e-32 9.396197783993115 7.340923754560969e-39 -2.971328968278346e-38 -3.416531346897604e-38 9.396197783993115" Properties=species:S:1:pos:R:3:forces:R:3:force:R:3 Minim_Constant_Volume=F n_minim_iter=2 energy=-318.9323986664736 stress="0.06538085377947928 0.0001681469675679313 0.0009488247525921657 0.0001681469675679313 0.06434715478505293 -0.00025689499700848805 0.0009488247525921657 -0.00025689499700848805 0.06522908442541281" free_energy=-318.9323986664736 virial="71.39658801047274 -0.6790873824343465 1.0951088884983426 -0.6790873824343465 72.91306619902186 -2.3366847377502005 1.0951088884983426 -2.3366847377502005 71.61428864042327" config_type=FLD_bcc pbc="T T T"
Ti       0.01656623      -0.02582349      -0.11520146       0.69292091      -0.70457554      -0.60668199      -0.11758552       0.29132007      -0.06563276
Ti       1.55359044       1.83600525       1.54432300      -0.11651633       0.74951692      -0.00501640      -0.55866734      -0.84498322       0.21270903
Ti       0.04032829       0.12947114       2.96074698      -0.28112935      -0.95808408       0.53400524      -0.67251984      -0.55421858       0.55558698
Ti       1.64649499       1.55702346       4.62225823      -0.25140983       0.30071897      -0.83168137      -0.12118363       0.23371176      -0.09207047
Ti       0.02838187       0.18842842       6.35702803       0.01704321      -0.52568838       0.73615523      -0.58438472      -0.49281155      -0.46717881
Ti       1.62799556       1.69567493       7.97410231      -0.60984413       0.05502284      -0.13334767      -0.27313550      -0.69303105      -0.63260296
Ti      -0.01493253       3.06612042       0.14472652      -0.38690735       0.26474052       0.22163224      -0.49439474       0.75919541      -0.28855248
Ti       1.66228726       4.53871565       1.56314202       0.43022754       0.39876191      -0.91050573      -1.02742628       0.73977477       0.58591124
Ti      -0.27591696       3.16403317       3.21954740      -0.50884888      -0.19448274       0.41882890       0.82346481       0.44757199      -0.09618732
Ti       1.64752790       4.82388936       4.59613749       0.94816265       0.59719598      -0.41506747      -0.66971316      -0.37135845       0.77399777
Ti       0.02789658       3.10319348       6.20991272      -0.36942112      -0.54554519       0.06201269      -0.35326195       0.25585628      -0.12581177
Ti       1.63127385       4.75964959       7.83696332       0.50101660       0.64138438       0.49424808      -0.77098076       0.05998191      -0.18064994
Ti       0.04269506       6.29676381       0.14031911       0.51626944       0.11599365       0.20596589      -0.73881103       0.00474937      -0.52339470
Ti       1.56980216       7.85217397       1.60748340       0.16303771      -0.25422291      -0.28780244      -0.05953344      -0.01332156      -0.30644257
Ti      -0.08600724       6.30306340       3.08682754      -0.08163090       0.27512604      -0.16296159      -0.21502619       0.10429857       0.04218528
Ti       1.60720060       7.82140213       4.71169709       0.46649513       0.33552510       0.04109918      -1.22597906       0.32613285      -0.08030478
Ti       0.00867560       6.39200614       6.42427746       0.86158233       0.03713828      -0.52061499      -0.53902609      -0.34529225      -0.36805019
Ti       1.72540490       7.93394259       7.80397738       0.00951710       0.15952360       0.30268722      -0.41756565       0.06469554       0.28549851
Ti       3.30400145      -0.04474522       0.02634174      -1.22434884      -0.03214193       0.24844845      -0.36056682      -0.12010744       0.50451434
Ti       4.48110484       1.52802441       1.43759556       0.08474187      -0.24270359      -0.18378039       1.00378936      -0.49417829       0.41540861
Ti       2.93820361       0.16636880       3.14583051      -0.13618724      -0.58130051      -0.06271077       0.29899658      -0.27897694       0.12201600
Ti       4.71531116       1.64076637       4.65840178      -0.63803260      -0.56569538       0.34175766       0.10481924       0.25586205       0.22510822
Ti       3.20552134      -0.00106913       6.14574767      -0.34998800      -0.25120297       0.36576086      -0.23205684       0.22748122       0.55102467
Ti       4.61748801       1.48892558       7.79435763      -0.46843457      -0.81417361      -0.49995046       0.15078979       0.58987762      -0.01486315
Ti       3.03650190       3.15030159       0.05822396      -0.14007629       0.01501661       0.16135694       0.03035653       0.18985427      -0.49218285
Ti       4.73055483       4.67146339       1.52974810       0.05143701      -0.73217447       0.57260514       0.16440559       0.92470593      -0.29149130
Ti       3.36534637       3.17106823       3.06017821      -0.29946247       0.92346396       0.34807145      -0.38632530       0.09547894       0.56012422
Ti       4.57094012       4.66496301       4.50691606      -0.24694805      -0.63387251       0.00045644       0.23935109       0.02034021       1.01966090
Ti       3.15951473       3.12173542       6.40786370       0.60766364       0.47762759      -0.09173048      -0.23907280       0.26918995      -0.93519273
Ti       4.55219815       4.64076372       7.94889092      -0.80723280      -0.41560436      -0.58107381       0.51793017       0.42269473      -0.72814608
Ti       3.12729438       6.24944567       0.05240200      -0.46064300      -0.99127608      -0.08360559      -0.17378533       0.33558902       0.16394367
Ti       4.63869518       7.80215567       1.68876538      -0.20374769       0.96330629       0.55136338       0.39266450       0.61029970      -0.26248908
Ti       3.12870171       6.27463352       3.14632732      -0.52582740      -0.99097948       0.25474549      -0.15020538      -0.15780902      -0.29345918
Ti       4.71125261       7.90997965       4.72916494      -0.54487896       0.25708120      -0.04187221       0.29646142       0.01315869      -0.72194786
Ti       3.18066638       6.56238888       6.32811219       0.30350916      -0.31765584      -0.17316867      -0.11337651      -1.38692538      -0.40629774
Ti       4.79712220       7.74515352       7.86319253       0.17251872       0.58717083      -0.45814216      -0.04783291       0.56689137       0.09690369
Ti       6.28556814       0.22182641      -0.08454309      -0.00817648       0.08126398      -0.14998606      -0.27085244      -0.39751854       0.40256971
Ti       8.00426489       1.63637618       1.45835497       0.20949030      -0.42704877      -0.08198886      -0.41246606      -0.01822693       0.10636735
Ti       6.32064134       0.08423520       3.22852420       0.73531234       0.43405223      -1.01831270       0.28573523      -0.09619168      -0.73501453
Ti       7.76214722       1.57008875       4.45422651       0.22060428       0.11059139       0.12778732       0.49437727      -0.48737478       0.54004460
Ti       6.20146390       0.11811984       6.25234650      -0.04832250      -0.68940544      -0.22715167       0.61927073      -0.28879306      -0.42893852
Ti       7.89381466       1.52012132       7.76107351       0.67061506      -0.88898600      -0.21022131       0.54004787       0.60894961       0.27097461
Ti       6.10410909       3.16509303      -0.02953612       0.36417864       1.17931503       1.03598077       1.02621715      -0.27458985      -0.07538015
Ti       7.67925443       4.86184025       1.75786438      -0.23105940      -0.22261438      -0.34167129       0.61153042      -0.35903973      -0.70355451
Ti       6.27943404       3.28793218       2.97155064       0.92806716       0.14664387      -1.02000305       0.13649192      -0.60863332       0.10314485
Ti       7.89025290       4.72410402       4.76549256      -0.19916359       0.13194945       0.80603527       0.23985032       0.69195179       0.18286251
Ti       6.37894143       3.09257809       6.24961463       0.19172257       0.92097006       0.39945918      -0.53378541       0.37573755       0.16829690
Ti       7.89839961       4.64741516       7.84633256      -0.14640878       0.59823979      -0.02969137       0.53557103       0.01921411      -0.27868542
Ti       6.31729558       6.26000943      -0.15406635       0.45842893       0.44790770      -0.25993638       0.11403165      -0.13388060       0.54300019
Ti       7.88548326       8.11726184       1.32660163      -0.02917534      -0.20702557       0.94904326       0.20089562      -0.84776442       0.81653144
Ti       6.26473912       6.33456059       3.06046825      -0.04617514       0.51503889       0.08505835       0.38381790       0.49324922       0.34412983
Ti       7.82917746       7.87860397       4.69612479      -0.10804932       0.16695882      -0.29211665       0.82836982      -0.10323595       0.45067632
Ti       6.09274854       6.23340325       6.24961152      -0.87782420       0.26039566       0.28678424       0.94108916      -0.58046996       0.04038616
Ti       7.77685189       7.87095101       7.84134984       0.74130824       0.03881818       0.12944468       0.77919555      -0.04908198      -0.48905573
54
Lattice="9.787706024992827 -0.27352207226050146 4.0392805617045097e-38 -1.5111959773950004e-32 9.787706024992827 7.646795577667676e-39 -3.09513434195661e-38 -3.558886819685004e-38 9.787706024992827" Properties=species:S:1:pos:R:3:forces:R:3:force:R:3 Minim_Constant_Volume=F n_minim_iter=2 energy=-318.9323986664736 stress="0.06538085377947928 0.0001681469675679313 0.0009488247525921657 0.0001681469675679313 0.06434715478505293 -0.00025689499700848805 0.0009488247525921657 -0.00025689499700848805 0.06522908442541281" free_energy=-318.9323986664736 virial="8.209107430173304 4.7884289001572515 -2.08299458508854 4.7884289001572515 6.648202363945984 -0.7640548801448587 -2.08299458508854 -0.7640548801448587 9.00525288021393" config_type=FLD_bcc pbc="T T T"
Ti      -0.02620997      -0.00440341      -0.10123762       0.69292091      -0.70457554      -0.60668199      -0.10765448       0.12640364       0.42565099
Ti       1.55738175       1.65693978       1.60696903      -0.11651633       0.74951692      -0.00501640       0.23651806      -0.53705073       0.22103542
Ti      -0.05430641      -0.01049853       3.27692049      -0.28112935      -0.95808408       0.53400524       0.16662377       0.61177115      -0.27031474
Ti       1.71839458       1.56772480       4.96442494      -0.25140983       0.30071897      -0.83168137      -0.08517702       0.68118574      -0.78250640
Ti      -0.03120390       0.10016356       6.37400877       0.01704321      -0.52568838       0.73615523      -0.27966582       0.26470702       0.68749874
Ti       1.55830950       1.66398649       8.10039986      -0.60984413       0.05502284      -0.13334767      -0.20165509       0.14381310       0.36137501
Ti      -0.15313273       3.23294404      -0.04727603      -0.38690735       0.26474052       0.22163224       0.60025567       0.10066643       0.12071016
Ti       1.73608286       4.75003002       1.57508273       0.43022754       0.39876191      -0.91050573      -0.42191204       1.12528189       0.25735821
Ti       0.05799670       3.22686394       3.24195842      -0.50884888      -0.19448274       0.41882890       0.03544512       0.45414940       0.15380795
Ti       1.53513729       4.87875629       4.92309134       0.94816265       0.59719598      -0.41506747       0.55962576       0.07091628       0.25597374