53
Lattice="8.870728496683665 -2.8425469926068123e-15 1.1324443957325822e-38 -4.43536424834183 7.682276228202598 7.663162776850163e-25 5.474060799563254e-39 -1.4310661229599006e-24 14.346354863571726" Properties=species:S:1:pos:R:3:forces:R:3 n_minim_iter=3 energy=-12.142030784357146 stress="0.011925474615731652 -0.006796880110651804 -9.189171029392078e-07 -0.006796880110651804 0.0040759395144279505 -1.5041615233265757e-06 -9.189171029392078e-07 -1.5041615233265757e-06 -0.005067852181583562" free_energy=-12.142030784357146 config_type=hcp pbc="T T T"
Ti       0.00152303       1.70693835       2.39082500      -0.03117958       0.01800336      -0.00000488
Ti       0.00157921       0.00076743       4.78164882       0.03117958      -0.01800336       0.00000488
Ti       0.00054256       1.70670908       7.17271170      -0.03117958       0.01800336      -0.00000488
Ti       0.00024196      -0.00191328       9.56251166       0.03117958      -0.01800336       0.00000488
Ti      -0.00056229       1.70615967      11.95560997      -0.03117958       0.01800336      -0.00000488
Ti      -1.47936277       2.55934644       0.00146565       0.03117958      -0.01800336       0.00000488
Ti      -1.47868053       4.26799877       2.38963439      -0.03117958       0.01800336      -0.00000488
Ti      -1.47899913       2.56086966       4.78096730       0.03117958      -0.01800336       0.00000488
Ti      -1.47807905       4.26733060       7.17288574      -0.03117958       0.01800336      -0.00000488
Ti      -1.47905646       2.56261102       9.56422308       0.03117958      -0.01800336       0.00000488
Ti      -1.47951246       4.26875378      11.95407488      -0.03117958       0.01800336      -0.00000488
Ti      -2.95670064       5.11955782      -0.00132819       0.03117958      -0.01800336       0.00000488
Ti      -2.95671264       6.82942846       2.39123051      -0.03117958       0.01800336      -0.00000488
Ti      -2.95702515       5.12121639       4.78063977       0.03117958      -0.01800336       0.00000488
Ti      -2.95762934       6.82822935       7.17423455      -0.03117958       0.01800336      -0.00000488
Ti      -2.95656588       5.11975445       9.56456066       0.03117958      -0.01800336       0.00000488
Ti      -2.95729458       6.82801307      11.95590740      -0.03117958       0.01800336      -0.00000488
Ti       2.95794050       0.00093128      -0.00083922       0.03117958      -0.01800336       0.00000488
Ti       2.95660029       1.70750376       2.39203469      -0.03117958       0.01800336      -0.00000488
Ti       2.95643033      -0.00018566       4.78101196       0.03117958      -0.01800336       0.00000488
Ti       2.95571329       1.70798503       7.17453367      -0.03117958       0.01800336      -0.00000488
Ti       2.95683749       0.00100353       9.56459822       0.03117958      -0.01800336       0.00000488
Ti       2.95626438       1.70753390      11.95683376      -0.03117958       0.01800336      -0.00000488
Ti       1.47841892       2.56232338      -0.00261975       0.03117958      -0.01800336       0.00000488
Ti       1.47927665       4.26801829       2.39076013      -0.03117958       0.01800336      -0.00000488
Ti       1.47854651       2.55877117       4.78189862       0.03117958      -0.01800336       0.00000488
Ti       1.47881186       4.26940913       7.17265916      -0.03117958       0.01800336      -0.00000488
Ti       1.47764626       2.56025698       9.56515198       0.03117958      -0.01800336       0.00000488
Ti       1.47878350       4.26740148      11.95580899      -0.03117958       0.01800336      -0.00000488
Ti       0.00009708       5.12248613      -0.00070205       0.03117958      -0.01800336       0.00000488
Ti      -0.00032766       6.82829788       2.38959563      -0.03117958       0.01800336      -0.00000488
Ti       0.00029612       5.12177855       4.78212340       0.03117958      -0.01800336       0.00000488
Ti      -0.00023459       6.82727462       7.17275678      -0.03117958       0.01800336      -0.00000488
Ti      -0.00034271       5.12071521       9.56407529       0.03117958      -0.01800336       0.00000488
Ti       0.00040405       6.83057618      11.95547030      -0.03117958       0.01800336      -0.00000488
Ti       5.91407655      -0.00007445      -0.00191877       0.03117958      -0.01800336       0.00000488
Ti       5.91379249       1.70723273       2.39352238      -0.03117958       0.01800336      -0.00000488
Ti       5.91362664       0.00030155       4.78208358       0.03117958      -0.01800336       0.00000488
Ti       5.91265032       1.70831532       7.17392936      -0.03117958       0.01800336      -0.00000488
Ti       5.91461003      -0.00090939       9.56563937       0.03117958      -0.01800336       0.00000488
Ti       5.91241715       1.70775936      11.95748618      -0.03117958       0.01800336      -0.00000488
Ti       4.43437371       2.56019244       0.00009965       0.03117958      -0.01800336       0.00000488
Ti       4.43486077       4.26638058       2.39112770      -0.03117958       0.01800336      -0.00000488
Ti       4.43430195       2.56123233       4.78119887       0.03117958      -0.01800336       0.00000488
Ti       4.43691418       4.26714799       7.17285537      -0.03117958       0.01800336      -0.00000488
Ti       4.43617777       2.55952788       9.56446404       0.03117958      -0.01800336       0.00000488
Ti       4.43667139       4.26632376      11.95548035      -0.03117958       0.01800336      -0.00000488
Ti       2.95716938       5.12229931      -0.00123695       0.03117958      -0.01800336       0.00000488
Ti       2.95558904       6.82921193       2.39135612      -0.03117958       0.01800336      -0.00000488
Ti       2.95715999       5.12186394       4.78143827       0.03117958      -0.01800336       0.00000488
Ti       2.95714175       6.82898306       7.17246308      -0.03117958       0.01800336      -0.00000488
Ti       2.95877527       5.12199132       9.56304528       0.03117958      -0.01800336       0.00000488
Ti       2.95756605       6.82771531      11.95608280      -0.03117958       0.01800336      -0.00000488
