53
Lattice="9.787706024992827 1.5111959773950004e-32 4.0392805617045097e-38 -1.5111959773950004e-32 9.787706024992827 7.646795577667676e-39 -3.09513434195661e-38 -3.558886819685004e-38 9.787706024992827" Properties=species:S:1:pos:R:3:forces:R:3 Minim_Constant_Volume=F n_minim_iter=2 energy=-11.935651721487151 stress="0.0029648752501008854 -0.00010028499673482897 -0.00011591705742132519 -0.00010028499673482897 0.002964875250098916 -0.00011591705741067135 -0.00011591705742132519 -0.00011591705741067135 0.002964874853913616" free_energy=-11.935651721487151 config_type=bcc pbc="T T T"
Ti       1.64651464       1.62894281       1.62894297      -0.00000000       0.00000000      -0.00000000
Ti       0.01579213       0.00767435       3.25787393       0.00000000      -0.00000000       0.00000000
Ti       1.63670994       1.62665016       4.88919571      -0.00000000       0.00000000      -0.00000000
Ti       0.00241962      -0.01913280       6.50788817       0.00000000      -0.00000000       0.00000000
Ti       1.62566146       1.62115603       8.15956416      -0.00000000       0.00000000      -0.00000000
Ti      -0.00908024       3.24844563       0.01465649       0.00000000      -0.00000000       0.00000000
Ti       1.62902658       4.89452829       1.61703686      -0.00000000       0.00000000      -0.00000000
Ti      -0.00544383       3.26367790       3.25105873       0.00000000      -0.00000000       0.00000000
Ti       1.63504132       4.88784662       4.89093607      -0.00000000       0.00000000      -0.00000000
Ti      -0.00601707       3.28109145       6.52500238       0.00000000      -0.00000000       0.00000000
Ti       1.62070723       4.90207846       8.14421325      -0.00000000       0.00000000      -0.00000000
Ti       0.00208864       6.50554065      -0.01328186       0.00000000      -0.00000000       0.00000000
Ti       1.63325295       8.16380636       1.63299802      -0.00000000       0.00000000      -0.00000000
Ti      -0.00115648       6.52212631       3.24778345       0.00000000      -0.00000000       0.00000000
Ti       1.62408590       8.15181530       4.90442423      -0.00000000       0.00000000      -0.00000000
Ti       0.00343618       6.50750695       6.52837819       0.00000000      -0.00000000       0.00000000
Ti       1.62743352       8.14965247       8.16253845      -0.00000000       0.00000000      -0.00000000
Ti       3.27287867       0.00931280      -0.00839218       0.00000000      -0.00000000       0.00000000
Ti       4.89076089       1.63459697       1.64103979      -0.00000000       0.00000000      -0.00000000
Ti       3.25777693      -0.00185659       3.25150532       0.00000000      -0.00000000       0.00000000
Ti       4.88189094       1.63940960       4.90741541      -0.00000000       0.00000000      -0.00000000
Ti       3.26184857       0.01003533       6.52875371       0.00000000      -0.00000000       0.00000000
Ti       4.88740181       1.63489830       8.17180206      -0.00000000       0.00000000      -0.00000000
Ti       3.26221041       3.27821511      -0.02619745       0.00000000      -0.00000000       0.00000000
Ti       4.90207204       4.89472348       1.62829427      -0.00000000       0.00000000      -0.00000000
Ti       3.26348628       3.24269298       3.26037195       0.00000000      -0.00000000       0.00000000
Ti       4.89742414       4.90863195       4.88867031      -0.00000000       0.00000000      -0.00000000
Ti       3.25448373       3.25755110       6.53429137       0.00000000      -0.00000000       0.00000000
Ti       4.89714052       4.88855541       8.16155436      -0.00000000       0.00000000      -0.00000000
Ti       3.26353945       6.53482380      -0.00702053       0.00000000      -0.00000000       0.00000000
Ti       4.89057639       8.15250061       1.61664919      -0.00000000       0.00000000      -0.00000000
Ti       3.26552987       6.52774790       3.26261980       0.00000000      -0.00000000       0.00000000
Ti       4.89150714       8.14226798       4.88964656      -0.00000000       0.00000000      -0.00000000
Ti       3.25914152       6.51711458       6.52352449       0.00000000      -0.00000000       0.00000000
Ti       4.89789352       8.17528355       8.15816747      -0.00000000       0.00000000      -0.00000000
Ti       6.52771285      -0.00074446      -0.01918771       0.00000000      -0.00000000       0.00000000
Ti       8.15615655       1.63188664       1.65591676      -0.00000000       0.00000000      -0.00000000
Ti       6.52321374       0.00301547       3.26222155       0.00000000      -0.00000000       0.00000000
Ti       8.14473491       1.64271257       4.90137234      -0.00000000       0.00000000      -0.00000000
Ti       6.53304767      -0.00909387       6.53916529       0.00000000      -0.00000000       0.00000000
Ti       8.14240318       1.63715291       8.17832625      -0.00000000       0.00000000      -0.00000000
Ti       6.51523199       3.25690569       0.00099651       0.00000000      -0.00000000       0.00000000
Ti       8.15138693       4.87834638       1.63196997      -0.00000000       0.00000000      -0.00000000
Ti       6.51451431       3.26730459       3.25337443       0.00000000      -0.00000000       0.00000000
Ti       8.17192103       4.88602048       4.89063239      -0.00000000       0.00000000      -0.00000000
Ti       6.53327252       3.25026003       6.52741195       0.00000000      -0.00000000       0.00000000
Ti       8.16949312       4.87777818       8.15826803      -0.00000000       0.00000000      -0.00000000
Ti       6.52773618       6.53295558      -0.01236951       0.00000000      -0.00000000       0.00000000
Ti       8.14321712       8.16164111       1.63425419      -0.00000000       0.00000000      -0.00000000
Ti       6.52764228       6.52860183       3.25576842       0.00000000      -0.00000000       0.00000000
Ti       8.15874423       8.15935241       4.88670950      -0.00000000       0.00000000      -0.00000000
Ti       6.54379510       6.52987568       6.51322432       0.00000000      -0.00000000       0.00000000
Ti       8.16298723       8.14667487       8.16429254      -0.00000000       0.00000000      -0.00000000
