53
Lattice="8.870728496683665 -2.8425469926068123e-15 1.1324443957325822e-38 -4.43536424834183 7.682276228202598 7.663162776850163e-25 5.474060799563254e-39 -1.4310661229599006e-24 14.346354863571726" Properties=species:S:1:pos:R:3:forces:R:3 n_minim_iter=0 energy=-319.54605718032695 stress="0.011925474615731652 -0.006796880110651804 -9.189171029392078e-07 -0.006796880110651804 0.0040759395144279505 -1.5041615233265757e-06 -9.189171029392078e-07 -1.5041615233265757e-06 -0.005067852181583562" free_energy=-319.54605718032695 config_type=hcp pbc="T T T"
Ti       0.00078331       1.69768367       2.34516610      -0.00037176       0.00083771      -0.00006719
Ti       0.00045214      -0.00010648       4.70718482      -0.00186946      -0.00090997      -0.00131477
Ti      -0.00178173       1.68876046       7.17308735      -0.00219120      -0.00071725      -0.00014134
Ti       0.00052033      -0.00030681       9.63889809      -0.00205105      -0.00027150       0.00123957
Ti       0.00084525       1.69760422      12.00105351      -0.00035947       0.00042870      -0.00032339
Ti      -1.48705830       2.52268657      -0.00013767       0.00467527       0.00062945       0.00026738
Ti      -1.48155076       4.26595370       2.37418158       0.00183620      -0.00073910       0.00194851
Ti      -1.46637643       2.56402925       4.77838555       0.00205311      -0.00093243       0.00228279
Ti      -1.47235131       4.27392621       7.17297766       0.00041009       0.00031819       0.00018676
Ti      -1.46623218       2.56389354       9.56777960       0.00151547      -0.00114784      -0.00247158
Ti      -1.48145443       4.26579421      11.97182404       0.00127855      -0.00001528      -0.00176278
Ti      -2.99369589       5.12948127      -0.00015083       0.00279997       0.00248928      -0.00028674
Ti      -2.96617012       6.83393025       2.34758387      -0.00067948      -0.00110800       0.00105554
Ti      -2.94758119       5.13034563       4.77672515      -0.00228675       0.00306693       0.00208311
Ti      -2.97554451       6.83942721       7.17303204      -0.00391841       0.00042547      -0.00001834
Ti      -2.94753696       5.13017735       9.56928440      -0.00188342       0.00299056      -0.00178931
Ti      -2.96612592       6.83389300      11.99834737      -0.00008489      -0.00140210      -0.00049111
Ti       2.93106921       0.02785989      -0.00011213       0.00125579      -0.00400685       0.00001906
Ti       2.93987819       1.69769742       2.39936333       0.00033946      -0.00172882      -0.00102082
Ti       2.95349060      -0.01256259       4.77674222       0.00003373      -0.00000998       0.00195026
Ti       2.95757770       1.70939202       7.17304845       0.00664776       0.00436786       0.00014355
Ti       2.95367261      -0.01269615       9.56932257      -0.00064311       0.00004996      -0.00186281
Ti       2.94003834       1.69756465      11.94689667      -0.00058823      -0.00127211       0.00032703
Ti       1.49172442       2.52417508      -0.00013127      -0.00255603       0.00188621       0.00001702
Ti       1.48330831       4.26530343       2.37390092       0.00091495      -0.00252386       0.00191170
Ti       1.46583563       2.56319950       4.77830428      -0.00138032       0.00079162       0.00227858
Ti       1.47040665       4.27269550       7.17296934      -0.00071904      -0.00150780       0.00017581
Ti       1.46589912       2.56304031       9.56776380      -0.00096977       0.00063314      -0.00199690
Ti       1.48326223       4.26523744      11.97207831       0.00151181      -0.00240046      -0.00170369
Ti       0.00328258       5.11973445      -0.00016686      -0.00001098      -0.00190623       0.00007394
Ti       0.00011977       6.83216280       2.37412485      -0.00002827       0.00176811       0.00210548
Ti       0.00135801       5.12095279       4.77106746      -0.00147373      -0.00150951      -0.00173089
Ti      -0.00213328       6.82016955       7.17303315      -0.00191823       0.00222277      -0.00004924
Ti       0.00142935       5.12072539       9.57484185      -0.00170785      -0.00074380       0.00211078
Ti       0.00012432       6.83207487      11.97202019       0.00007135       0.00133325      -0.00238224
Ti       5.94260136       0.02618987      -0.00010413       0.00035008      -0.00201875      -0.00005628
Ti       5.92843015       1.69879979       2.39903035       0.00252220      -0.00346123      -0.00038047
Ti       5.91712513      -0.01245326       4.77842224      -0.00013692       0.00199991       0.00193072
Ti       5.90839706       1.71032811       7.17315208      -0.00696032       0.00222919      -0.00016332
Ti       5.91712278      -0.01261839       9.56778192       0.00037623       0.00203544      -0.00212435
Ti       5.92839266       1.69877196      11.94718519       0.00298115      -0.00361515       0.00003997
Ti       4.43501554       2.56079527      -0.00008966       0.00011938      -0.00093221       0.00014490
Ti       4.43531616       4.28688923       2.39923585      -0.00080459       0.00394489      -0.00052944
Ti       4.43573826       2.56054919       4.77487686      -0.00173470      -0.00080628      -0.00561373
Ti       4.43389592       4.26574673       7.17308214      -0.00239974      -0.00472152      -0.00019884
Ti       4.43578006       2.56040144       9.57135025      -0.00183733      -0.00037517       0.00526943
Ti       4.43527778       4.28689766      11.94688154      -0.00073124       0.00357788       0.00040564
Ti       2.99524213       5.12839416      -0.00017616      -0.00086476       0.00026023       0.00012410
Ti       2.96519132       6.83261204       2.34514408       0.00241902      -0.00005935       0.00094999
Ti       2.94838380       5.13115765       4.77830730       0.00225276       0.00039449       0.00198074
Ti       2.97165067       6.83931807       7.17302283       0.00283497       0.00210207       0.00015824
Ti       2.94843447       5.13104947       9.56771878       0.00201043       0.00027660      -0.00181951
Ti       2.96526228       6.83261826      12.00095991       0.00195132      -0.00021738      -0.00088155
