53
Lattice="9.787706024992827 1.5111959773950004e-32 4.0392805617045097e-38 -1.5111959773950004e-32 9.787706024992827 7.646795577667676e-39 -3.09513434195661e-38 -3.558886819685004e-38 9.787706024992827" Properties=species:S:1:pos:R:3:forces:R:3 Minim_Constant_Volume=F n_minim_iter=0 energy=-320.1855361052347 stress="0.0029648752501008854 -0.00010028499673482897 -0.00011591705742132519 -0.00010028499673482897 0.002964875250098916 -0.00011591705741067135 -0.00011591705742132519 -0.00011591705741067135 0.002964874853913616" free_energy=-320.1855361052347 config_type=bcc pbc="T T T"
Ti       1.50811936       1.37041211       1.66003389       0.00672547       0.00280021      -0.00309341
Ti      -0.06191370      -0.22327963       3.43336049      -0.00229865      -0.00360389       0.00117685
Ti       1.68069664       1.81555111       4.70647316      -0.00080706       0.00449894       0.00240985
Ti       0.05054856       0.19572358       6.35657695      -0.00448589      -0.00227849       0.00165635
Ti       1.18034732       1.17922897       8.60679471      -0.00295001      -0.00305212       0.00166070
Ti       0.19522202       3.42915117      -0.05225483       0.00382167       0.00111493       0.00368564
Ti       2.03715175       5.28063796       1.22370373      -0.00055958       0.00254607      -0.00027782
Ti       0.41835936       3.64626883       2.86724011      -0.00371018      -0.00273908      -0.00139228
Ti       1.56701914       4.79226756       5.10209798      -0.00358068       0.00153919       0.00705311
Ti      -0.08120986       3.17724114       6.75198546       0.00115586      -0.00055363      -0.00081426
Ti       1.81708686       5.07843147       8.10569749       0.00138750       0.00054345       0.00143815
Ti      -0.22329315       6.35345445       0.06091561       0.00296785      -0.00202022      -0.00043666
Ti       1.66063278       8.26092591       1.36777734      -0.00262278       0.00480664      -0.00085196
Ti       0.05164410       6.59893051       3.04120587      -0.00241375      -0.00195451       0.00424496
Ti       1.22716687       7.72537792       5.31075456       0.00101687      -0.00163169      -0.00407728
Ti      -0.42569403       6.14258576       6.93609197       0.00397064       0.00328527      -0.00501125
Ti       1.37215470       8.12592516       8.27635341      -0.00346990      -0.00170761       0.00099858
Ti       3.42973205       0.04946320      -0.19771621       0.00039055      -0.00106078       0.00225580
Ti       4.47544246       1.22601200       2.06075473       0.00363656       0.00123359      -0.00210057
Ti       2.84950006      -0.42734847       3.64328524       0.00492530       0.00443992      -0.00395378
Ti       4.68361554       1.56482637       4.99302485      -0.00210307      -0.00158877      -0.00118087
Ti       3.03416004      -0.08208311       6.60911010       0.00245014      -0.00041303      -0.00219544
Ti       5.08001930       1.67884359       7.96967064      -0.00039284       0.00152170      -0.00231806
Ti       3.17783214       3.03362762       0.08083469      -0.00027666      -0.00094404      -0.00203486
Ti       4.96285106       5.08452961       1.53823310      -0.00261733       0.00325376      -0.00094422
Ti       3.33005732       3.45390956       3.15524888      -0.00316564       0.00194706       0.00323016
Ti       5.13195786       5.13026472       4.65506145       0.00243259       0.00256383      -0.00420981
Ti       2.95425684       2.95301448       6.83243190      -0.00356905      -0.00347368       0.00148445
Ti       4.79352040       4.68185713       8.21968368       0.00368032      -0.00066685       0.00232411
Ti       3.64666156       6.91810140      -0.42004836      -0.00117143      -0.00237187       0.00708262
Ti       4.69855581       8.08728494       1.83883590       0.00654179      -0.00119434       0.00231984
Ti       3.06076593       6.48617843       3.43703423      -0.00126738       0.00299883       0.00387870
Ti       5.08561067       8.24761960       4.82430761       0.00368756      -0.00138419       0.00146778
Ti       3.45571807       6.62966977       6.45547264      -0.00022726      -0.00383740       0.00542105
Ti       5.28145985       8.56103156       7.74965820       0.00268922       0.00108790      -0.00369816
Ti       6.35350634      -0.06320254       0.22167870      -0.00142929       0.00030346       0.00086086
Ti       8.41759930       1.65972833       1.52547944      -0.00130845       0.00194235      -0.00645586
Ti       6.74441861       0.04968318       3.18725165      -0.00322180       0.00119124      -0.00043477
Ti       8.56213065       2.03664986       4.50507179       0.00154669      -0.00188733      -0.00176945
Ti       6.91990108       0.41695906       6.14065825      -0.00185700      -0.00380626      -0.00083749
Ti       8.12748369       1.50879780       8.41627411      -0.00165874      -0.00098911      -0.00350843
Ti       6.14355469       2.84889716       0.42403269       0.00093073       0.00513842      -0.00177729
Ti       7.94769361       4.69981772       1.69827930      -0.00598930      -0.00246658       0.00071623
Ti       6.34805566       3.05881918       3.29835816       0.00234745       0.00257036      -0.00271204
Ti       8.24947445       4.96069356       4.70037946      -0.00247356       0.00210150      -0.00205163
Ti       6.63157467       3.32801691       6.33044824      -0.00362645      -0.00204975       0.00211188
Ti       7.72629354       4.47579299       8.55842499      -0.00203971      -0.00272027       0.00398238
Ti       6.59853301       6.74358283      -0.05259647       0.00246168      -0.00055149      -0.00057158
Ti       8.62966443       8.62991319       1.15685403       0.00490084      -0.00053663      -0.00314400
Ti       6.88094554       6.87991688       2.90505443      -0.00248864      -0.00043489       0.00303136
Ti       8.08756990       7.94601522       5.08606911       0.00257474      -0.00156710       0.00111056
Ti       6.48863592       6.34750175       6.72642893      -0.00233362      -0.00084894      -0.00257247
Ti       8.26245546       8.41733844       8.12641434       0.00387366       0.00090593      -0.00117624
