53
Lattice="9.787706024992827 1.5111959773950004e-32 4.0392805617045097e-38 -1.5111959773950004e-32 9.787706024992827 7.646795577667676e-39 -3.09513434195661e-38 -3.558886819685004e-38 9.787706024992827" Properties=species:S:1:pos:R:3:momenta:R:3:masses:R:1:force:R:3:forces:R:3 energy=-304.966597547 config_type=HMD_bcc_vac pbc="T T T"
Ti       0.95294188       1.56525260       2.40297827      -1.93129861       5.16857141       0.79288184      47.86700000       0.65225676       0.37772754      -1.10093912       0.65225676       0.37772754      -1.10093912 
Ti      -0.43737209      -0.41609145       3.71962840      -2.57297565       2.15536660       0.24293633      47.86700000      -0.22332175       0.56789870      -0.28431012      -0.22332175       0.56789870      -0.28431012 
Ti       1.66923504       1.94251851       4.67472410      -0.56030900       2.39207286      -0.03133452      47.86700000      -0.69940688      -1.18365955       0.47333744      -0.69940688      -1.18365955       0.47333744 
Ti      -0.01757695      -0.21150523       6.22830938       2.50394786      -3.26003419       0.64514441      47.86700000       0.50994955       0.21039981       1.46687359       0.50994955       0.21039981       1.46687359 
Ti       0.19480119      -0.41752713       9.72851556      -0.43550236       1.04282231      -2.92323894      47.86700000      -0.05682106      -0.01131094      -0.55039757      -0.05682106      -0.01131094      -0.55039757 
Ti       0.54493694       3.43272570       0.31278817       2.55325092       1.92008001       4.63479860      47.86700000      -1.54036427      -1.17865583      -0.29052209      -1.54036427      -1.17865583      -0.29052209 
Ti       1.70761228       5.16291926       1.79647625       4.44589181       1.15519046      -0.48263385      47.86700000       0.22342545      -0.08856397       0.62888686       0.22342545      -0.08856397       0.62888686 
Ti      -0.26831520       3.28835444       3.30705820      -0.11122737      -2.93732338      -0.55508577      47.86700000       0.80292362       1.07751149      -0.80104155       0.80292362       1.07751149      -0.80104155 
Ti       1.29889305       4.89876358       5.22559335      -3.28256696       2.40936745      -0.25625461      47.86700000       1.38706911      -0.35877646      -0.67600653       1.38706911      -0.35877646      -0.67600653 
Ti       0.81916644       2.37115394       7.26993267       1.37530804      -0.99963201      -3.94916134      47.86700000       0.00915241      -0.17678039      -0.51509184       0.00915241      -0.17678039      -0.51509184 
Ti       1.68703760       5.07599740       7.89452249      -1.65472890       1.48892294       0.20386361      47.86700000       0.46878576       0.85541495       0.69480147       0.46878576       0.85541495       0.69480147 
Ti      -0.31456364       6.08987073       0.34694537      -4.69063826       2.47475470       1.18458754      47.86700000       0.82699028       0.59758488      -1.26671103       0.82699028       0.59758488      -1.26671103 
Ti       1.65120005       8.70358401       1.87346380       0.14520768       1.51173868       0.63585589      47.86700000       0.05228851      -2.15301299      -0.11103639       0.05228851      -2.15301299      -0.11103639 
Ti       0.18343847       6.72885643       3.34640125       0.80100270      -3.52144132       3.21189651      47.86700000       0.38253435      -0.31834493       0.03373442       0.38253435      -0.31834493       0.03373442 
Ti       2.06330341       8.49455805       4.59304455       3.19463631       1.23028081       2.83047024      47.86700000      -0.49857925       0.47409613       0.90394087      -0.49857925       0.47409613       0.90394087 
Ti      -0.00586786       6.89454846       6.51514622       3.40816543       1.28764990       1.73609117      47.86700000       0.31563590       0.37269369      -0.66245990       0.31563590       0.37269369      -0.66245990 
Ti       1.74948051       8.15180965       8.49812967       3.20461681      -0.57055676      -3.80284852      47.86700000       0.22982428      -0.56758845       0.47862762       0.22982428      -0.56758845       0.47862762 
Ti       2.33206887       1.23944814      -0.54321198      -3.44106480       3.23504394       4.40999332      47.86700000       0.29010195       0.14045901       1.17244254       0.29010195       0.14045901       1.17244254 
Ti       5.00870801       1.61609614       1.22522439      -0.58998802      -0.40587542       2.29666410      47.86700000       0.02887872       0.27155876       0.24944718       0.02887872       0.27155876       0.24944718 
Ti       3.53766012       0.30755710       3.29306698      -2.94058776       0.92369774       0.11595184      47.86700000       0.35502438       0.58043365      -0.64654442       0.35502438       0.58043365      -0.64654442 
Ti       5.19290214       1.30032841       5.24833603      -2.94797292       4.98822856      -2.16982012      47.86700000      -0.68529917      -0.15134643       0.58706550      -0.68529917      -0.15134643       0.58706550 
Ti       3.00362654       0.40780862       6.92259482       1.69358358      -0.23296792       4.39316301      47.86700000       0.17173841      -0.86555859      -1.10818398       0.17173841      -0.86555859      -1.10818398 
Ti       5.20899011       1.64247858       8.26619789      -1.71159782      -3.31008922      -3.90712431      47.86700000      -0.16162047       0.02031443      -0.15508853      -0.16162047       0.02031443      -0.15508853 
Ti       3.05985593       3.40956776      -0.30803148      -2.95221503       0.77980260      -1.75088389      47.86700000       0.89962133      -0.21221104      -0.30476822       0.89962133      -0.21221104      -0.30476822 
Ti       5.01889799       4.56668445       1.37050992       6.84145809       1.37402955      -3.30256655      47.86700000       0.12723809      -0.71111971      -0.09561694       0.12723809      -0.71111971      -0.09561694 
Ti       3.49187392       3.43821677       3.28775696       2.51953687      -4.72247702       0.23745032      47.86700000      -1.50295646      -0.38823459      -0.45877176      -1.50295646      -0.38823459      -0.45877176 
Ti       5.39346789       4.96524413       4.85396596       1.62887837      -3.35567587       0.13451812      47.86700000       0.06955935       0.63644541      -0.46000076       0.06955935       0.63644541      -0.46000076 
Ti       3.35497852       3.10983093       5.95702648       0.81305537       3.66936553       2.10712069      47.86700000       0.36555534       0.87798639       1.07576987       0.36555534       0.87798639       1.07576987 
Ti       4.53108001       4.86808254       7.55309378      -1.08516948      -1.48846599      -2.59474870      47.86700000       1.13796635       0.03578080       0.98357327       1.13796635       0.03578080       0.98357327 
Ti       3.83244385       6.25536812       0.39922343       1.90573268      -2.76213376      -0.73464315      47.86700000      -0.95649052       1.14730606      -1.25621420      -0.95649052       1.14730606      -1.25621420 
Ti       3.86896231       9.03381131       0.69809849      -5.21532212      -4.34009548       1.61642922      47.86700000       0.66461039      -0.47038205      -0.40760240       0.66461039      -0.47038205      -0.40760240 
Ti       3.33078627       6.38032546       3.24181367       3.80883244       0.21163342       2.21066688      47.86700000       0.06231117       0.35679437      -0.46275608       0.06231117       0.35679437      -0.46275608 
Ti       4.94954179       8.35285447       5.03035479       1.16232525      -0.97809438       3.88069574      47.86700000      -0.68141015      -1.54339366       0.05842049      -0.68141015      -1.54339366       0.05842049 
Ti       3.50711769       6.74423333       5.90040618      -0.53496492       1.85968887      -2.98477103      47.86700000      -0.03975661      -0.15822147       1.52343939      -0.03975661      -0.15822147       1.52343939 
Ti       5.17838480       8.44038001       8.03599685       0.54980157      -1.36687022       0.82695218      47.86700000      -1.11008112      -0.34833115       0.05918571      -1.11008112      -0.34833115       0.05918571 
Ti       6.57021413       0.06486942       0.47175717      -2.35246391      -3.48350331      -0.34928878      47.86700000      -0.65104139       0.32862237      -0.63659911      -0.65104139       0.32862237      -0.63659911 
Ti       7.75470575       2.27679195       1.76779041       1.45161630      -2.53523069      -4.93748823      47.86700000       0.83470025      -1.55125152      -0.25122518       0.83470025      -1.55125152      -0.25122518 
Ti       6.49302193       0.08300823       3.35725004      -2.41863527      -0.29780221       2.16914273      47.86700000      -0.04445573      -0.17491382      -0.76396780      -0.04445573      -0.17491382      -0.76396780 
Ti       8.05559378       1.77495348       5.08117781      -2.78964446       4.53153712       0.03301023      47.86700000       1.65836022      -0.11371027      -0.24339920       1.65836022      -0.11371027      -0.24339920 
Ti       6.95819129      -0.34534885       6.15813450      -1.68190463       1.97636813      -1.57244002      47.86700000       0.70200943       0.06212992       0.91717607       0.70200943       0.06212992       0.91717607 
Ti       8.42628074       1.36182965       8.60236017      -1.88355869      -2.51129602      -0.38665241      47.86700000      -0.26107179       0.05697103      -0.95102227      -0.26107179       0.05697103      -0.95102227 
Ti       7.50832821       3.57459451      -0.45617197       3.04617415      -2.97878271      -3.15435648      47.86700000      -4.56718095      -1.57596849       3.39847758      -4.56718095      -1.57596849       3.39847758 
Ti       7.48628001       5.13532547       1.94423385      -0.60877809       0.94100750      -0.05278921      47.86700000       1.38175756      -0.49816955       0.87192888       1.38175756      -0.49816955       0.87192888 
Ti       6.13007143       2.99370086       3.54411313       2.99928613      -0.51797448       5.68091661      47.86700000       0.49366185       0.81359582      -0.32307539       0.49366185       0.81359582      -0.32307539 
Ti       8.50874048       5.01636199       4.97501450       4.25232491       1.38696719       0.68590812      47.86700000      -0.86979639      -1.25320529       0.60888642      -0.86979639      -1.25320529       0.60888642 
Ti       6.88442482       3.02711467       6.56074907      -4.36405380      -2.41058525      -0.93237259      47.86700000      -1.21040077       1.20911020       1.07258831      -1.21040077       1.20911020       1.07258831 
Ti       8.93436720       4.34687726       7.84633533       2.00069463       4.74893330      -0.58276028      47.86700000       2.83647582       3.25685386      -3.94117237       2.83647582       3.25685386      -3.94117237 
Ti       6.50879583       6.20071967      -0.52586979       2.23684832       0.20757799      -1.21832720      47.86700000       0.05185489       0.08937981       0.31229896       0.05185489       0.08937981       0.31229896 
Ti       8.05096624       7.99830546       1.59406742      -3.62447372      -0.54851235       0.00680744      47.86700000       1.06045474       0.39080159      -0.27196293       1.06045474       0.39080159      -0.27196293 
Ti       6.04054654       7.11554753       2.17628143      -3.01184717      -2.88140246      -4.65784838      47.86700000      -2.31117953       0.81198999      -0.14130069      -2.31117953       0.81198999      -0.14130069 
Ti       7.62771547       7.18080490       4.01994156      -3.59404357      -1.42917382       0.80518837      47.86700000      -0.56599158       0.53322374       0.66909775      -0.56599158       0.53322374       0.66909775 
Ti       7.05497816       6.58114901       6.62846204       4.34704414       2.30040935       1.39327239      47.86700000      -1.06382484      -0.30908126       0.71832741      -1.06382484      -0.30908126       0.71832741 
Ti       7.95046565       8.00267513       8.31167800       0.09831291      -3.52511269      -1.83293859      47.86700000       0.64833449       0.20870801       0.17946073       0.64833449       0.20870801       0.17946073 
