54
Lattice="9.787706024992827 1.5111959773950004e-32 4.0392805617045097e-38 -1.5111959773950004e-32 9.787706024992827 7.646795577667676e-39 -3.09513434195661e-38 -3.558886819685004e-38 19.575412049985655" Properties=species:S:1:pos:R:3:momenta:R:3:masses:R:1:force:R:3:forces:R:3 energy=-291.56107148 config_type=HMD_bcc_surf pbc="T T T"
Ti       0.29623395       0.06673036      -0.43069023      -4.99109200       0.71303051      -5.30117174      47.86700000      -1.34764001      -0.03370612       0.79857878      -1.34764001      -0.03370612       0.79857878 
Ti       1.58807364       1.59004521       0.96691784       0.04055119      -0.50638113      -0.17076214      47.86700000      -0.44364649       1.21112011      -0.26308828      -0.44364649       1.21112011      -0.26308828 
Ti       0.33699145      -0.10545385       2.69814306       2.09703768      -2.57574615       1.26206646      47.86700000      -0.06470207      -0.26676229       0.56888450      -0.06470207      -0.26676229       0.56888450 
Ti       1.87433702       1.23766057       5.24201742       2.07728792       3.72585051      -1.44501164      47.86700000       0.15927528      -0.24297567      -1.00367852       0.15927528      -0.24297567      -1.00367852 
Ti      -0.16399660       0.29924660       7.11305553       3.04126235       0.14435289       2.71297608      47.86700000       0.40608983       0.50463659       0.40347587       0.40608983       0.50463659       0.40347587 
Ti       1.53766721       2.20565492       9.06833628      -1.12142527       3.97751310      -2.49793248      47.86700000       0.36395410      -0.49339781      -1.60260847       0.36395410      -0.49339781      -1.60260847 
Ti      -0.59845473       3.14627859      -0.44809773      -0.30760911       1.53974304      -2.45839775      47.86700000       3.21047963      -0.61232722       0.17844814       3.21047963      -0.61232722       0.17844814 
Ti       1.49298028       4.53874393       1.48701850      -1.45839477      -3.13742333      -0.13044451      47.86700000       0.20897722       0.35596053      -0.29025464       0.20897722       0.35596053      -0.29025464 
Ti       0.68747437       2.93437489       3.48009717      -0.79297308      -0.28920821      -1.27067300      47.86700000       0.41249962      -0.78050170      -0.63509212       0.41249962      -0.78050170      -0.63509212 
Ti       1.46470936       4.96733307       5.00241720       1.76469205      -4.81404768       1.65348737      47.86700000       0.51804732       0.83773694       0.28533654       0.51804732       0.83773694       0.28533654 
Ti       0.40085667       3.20714625       6.35039943       0.02428667       1.37453122       2.16318522      47.86700000      -0.41353240       0.53690204       1.04743079      -0.41353240       0.53690204       1.04743079 
Ti       1.52423403       5.06923709       8.17603460       1.53313470      -4.32623396       2.64015765      47.86700000       0.36903893       0.66501330      -0.33717819       0.36903893       0.66501330      -0.33717819 
Ti      -1.00834294       5.69507911       0.23677058      -1.55263213      -4.23458217       1.18865438      47.86700000       0.33206776       0.99773277      -0.21540273       0.33206776       0.99773277      -0.21540273 
Ti       1.42368422       8.21950955       1.03239193       1.01599065      -0.30793368      -0.83718979      47.86700000      -0.72264831      -1.04893805       0.52735019      -0.72264831      -1.04893805       0.52735019 
Ti       0.24986689       6.60170137       3.11491983       0.32319644      -2.54010616       2.38329323      47.86700000      -1.36649120      -0.51777844      -0.41965416      -1.36649120      -0.51777844      -0.41965416 
Ti       1.46260175       8.11312281       5.34577542       0.96109756       1.38084292      -0.68560277      47.86700000       0.75685331       2.10843373      -1.98162289       0.75685331       2.10843373      -1.98162289 
Ti      -0.26348864       7.02253679       6.28281747      -0.50051619      -3.27534740       1.23402061      47.86700000      -1.17721617      -2.37043236       2.11212326      -1.17721617      -2.37043236       2.11212326 
Ti       1.43683884       8.24719984       8.72414376      -5.56991315       3.46696574       1.58414559      47.86700000      -0.00686264      -0.26034572      -0.88088259      -0.00686264      -0.26034572      -0.88088259 
Ti       3.25988822      -0.34478614      -0.62389495       4.65285108       0.71139559      -2.35179958      47.86700000       2.57223035       0.05700164      -1.42682474       2.57223035       0.05700164      -1.42682474 
Ti       5.44349667       0.95699310       1.05082482       1.45282090      -0.84633851      -0.12060904      47.86700000      -0.49575160       0.41943589      -0.27958638      -0.49575160       0.41943589      -0.27958638 
Ti       2.87429867       0.23835462       2.67994030       4.99563090      -2.50467674      -2.62022823      47.86700000       1.31401722       0.18393675       0.96899369       1.31401722       0.18393675       0.96899369 
Ti       4.67834204       1.66438351       5.22123561      -2.20345714      -5.51973622      -1.87448484      47.86700000       0.41987718      -0.79953991      -0.17746508       0.41987718      -0.79953991      -0.17746508 
Ti       3.28767111       0.15350097       7.04922831      -1.78129642       0.15305773       0.26860749      47.86700000      -0.15645035       0.43678384       1.69866349      -0.15645035       0.43678384       1.69866349 
Ti       5.12814834       2.02272870       8.13419577       0.97296254      -0.76528698       3.22735872      47.86700000       0.36052090      -0.69508662       0.22113791       0.36052090      -0.69508662       0.22113791 
Ti       4.06321501       3.39960189       0.49529810       0.91348462       4.05073839       3.20675098      47.86700000      -0.58732755      -0.42142540       0.37490074      -0.58732755      -0.42142540       0.37490074 
Ti       5.09492597       5.25639618       2.17993148      -3.74975930       3.79871451      -1.40892440      47.86700000       0.44960045      -0.82174137       0.37332425       0.44960045      -0.82174137       0.37332425 
Ti       3.50657848       3.31808796       3.54650661      -3.94614529       3.26031868       3.57499980      47.86700000      -0.47703307      -0.52296397      -0.70163785      -0.47703307      -0.52296397      -0.70163785 
Ti       4.81885737       5.31794524       5.12961928      -1.73085254      -0.74153389      -1.76859138      47.86700000      -0.10546406       0.29931400      -1.43346723      -0.10546406       0.29931400      -1.43346723 
Ti       3.45763400       3.52026152       6.65444083       1.22954852       2.72334019      -1.61473714      47.86700000      -1.02564932       0.13279606       1.08145283      -1.02564932       0.13279606       1.08145283 
Ti       5.52547426       5.38640297       8.18556488       5.86696660      -0.36746068       1.70382899      47.86700000      -0.97268491       0.29563023      -0.30852221      -0.97268491       0.29563023      -0.30852221 
Ti       3.52745171       6.61937032       0.33787469      -2.63515073      -0.40885041      -2.80552623      47.86700000      -0.40353476      -0.82585822      -0.87024354      -0.40353476      -0.82585822      -0.87024354 
Ti       4.92346738       8.35643599       1.78787889      -1.56930851       0.55829721      -5.29394614      47.86700000       0.57277371      -0.88505954      -0.32038992       0.57277371      -0.88505954      -0.32038992 
Ti       2.93518066       6.35019266       3.14652801      -3.43982867       2.44186897      -0.99766538      47.86700000       0.05361762       1.31017146       0.67839040       0.05361762       1.31017146       0.67839040 
Ti       4.11314241       8.72603768       4.96282598      -1.09865556      -0.63365571      -0.26419718      47.86700000       0.70631952      -0.88637272      -0.70266903       0.70631952      -0.88637272      -0.70266903 
Ti       3.40591055       6.76241194       6.55546147      -3.66946624       3.88281917       0.11024004      47.86700000      -0.05380734      -0.71556630       2.07274638      -0.05380734      -0.71556630       2.07274638 
Ti       4.78859707       8.24997844       8.82816929      -0.91166737      -1.58317054      -0.75730198      47.86700000       0.28874780       0.00763728      -1.41828267       0.28874780       0.00763728      -1.41828267 
Ti       5.07471145      -1.44643480      -1.53531516       2.78175573       0.56963708      -6.14061196      47.86700000      -1.06627378       0.44329042       2.06539369      -1.06627378       0.44329042       2.06539369 
Ti       8.30850693       1.44990257       1.77816525       2.21403539      -1.70190421       3.03902376      47.86700000      -0.26123828      -0.65947162      -0.39730280      -0.26123828      -0.65947162      -0.39730280 
Ti       6.05139076      -0.02509865       3.34667256      -1.00651091      -2.72197705       2.68431112      47.86700000       0.82964679      -0.10661852      -0.25171050       0.82964679      -0.10661852      -0.25171050 
Ti       8.55369574       1.53357218       4.81693210       0.49496441       6.58447351      -1.91104843      47.86700000      -0.72847594       0.20904041      -0.39823493      -0.72847594       0.20904041      -0.39823493 
Ti       6.86789316       0.04366050       6.25472585       2.80042391       2.02583438       1.47911749      47.86700000      -1.25120570       0.76061937       1.84043441      -1.25120570       0.76061937       1.84043441 
Ti       8.29712514       2.12751094       7.88080681       2.71608487       2.26448847      -0.29194586      47.86700000      -0.50636222      -1.14209361       0.18504417      -0.50636222      -1.14209361       0.18504417 
Ti       6.99852844       3.42575387       0.01223202      -2.71024168      -1.79720223      -1.02520696      47.86700000      -2.59506133      -0.55382788      -0.17851441      -2.59506133      -0.55382788      -0.17851441 
Ti       8.38002971       3.95770678       2.33730439       3.42533294      -9.76717282       0.82367487      47.86700000       0.43279600       0.96584661       0.04908210       0.43279600       0.96584661       0.04908210 
Ti       6.42924252       2.74332076       3.17776836       2.20449108       2.62670883       0.76139894      47.86700000      -0.79793621       0.33997935       0.16515790      -0.79793621       0.33997935       0.16515790 
Ti       7.94187886       4.64393900       4.99388969       2.57206351      -1.78286090       0.03608629      47.86700000       0.51607433       0.11151443       0.84301397       0.51607433       0.11151443       0.84301397 
Ti       6.32298236       3.58274930       6.28541784       3.54678876      -0.64740202       0.05801528      47.86700000       1.72413225      -0.62231513       0.20400097       1.72413225      -0.62231513       0.20400097 
Ti       8.36111090       5.05002868       7.93036462      -2.67816147       0.84393181       3.28433138      47.86700000       0.13281465       0.28014758      -0.24525301       0.13281465       0.28014758      -0.24525301 
Ti       6.33192966       6.04724261       0.03575943      -2.08950528      -0.53753911       3.05275303      47.86700000       0.46550501       1.28788119      -0.37160861       0.46550501       1.28788119      -0.37160861 
Ti       7.96108013       8.02912675       1.67909628      -1.54542125      -0.61306532       0.87279312      47.86700000       0.19030445       0.59048078      -0.71244788       0.19030445       0.59048078      -0.71244788 
Ti       6.96866585       6.26551844       3.15245174       1.04312599       3.33933003       3.91158219      47.86700000      -0.33120155       1.30376895      -0.13804641      -0.33120155       1.30376895      -0.13804641 
Ti       8.34078274       8.55400363       4.71669792      -0.09669594      -2.49303572      -2.95361782      47.86700000       0.37066291       0.06041909      -1.37031547       0.37066291       0.06041909      -1.37031547 
Ti       6.53402036       7.18319396       6.17568408      -2.76097750       2.69825713       1.58261171      47.86700000      -0.69260192      -0.75970209       0.65030373      -0.69260192      -0.75970209       0.65030373 
Ti       7.92526414       8.04724436       8.42063433      -0.84421148       2.58383729      -1.50184342      47.86700000      -0.08612493       0.33157693      -0.06168344      -0.08612493       0.33157693      -0.06168344 
