54
Lattice="8.870728496683665 -2.8425469926068123e-15 1.1324443957325822e-38 -4.43536424834183 7.682276228202598 7.663162776850163e-25 5.474060799563254e-39 -1.4310661229599006e-24 28.692709727143452" Properties=species:S:1:pos:R:3:momenta:R:3:masses:R:1:force:R:3:forces:R:3 energy=-302.732857509 config_type=HMD_hcp_surf pbc="T T T"
Ti       0.38573174       0.23837416       0.27322171       0.15110485      -2.16924843       1.94944966      47.86700000      -0.05977458      -0.28059450       0.31415090      -0.05977458      -0.28059450       0.31415090 
Ti       0.42640669       1.95322426       2.48065775      -0.38554994      -0.39992866      -0.39034150      47.86700000       0.53825622       0.52630704       0.03815238       0.53825622       0.52630704       0.03815238 
Ti       0.17041558       0.03605223       5.00446476       1.49416581       0.47542337      -1.36711283      47.86700000       0.01002916       0.11514935       0.12348842       0.01002916       0.11514935       0.12348842 
Ti      -0.35097146       1.67617629       7.33666597      -0.34336805      -0.35396309      -0.98795913      47.86700000       1.03954624       0.02669403      -1.27972239       1.03954624       0.02669403      -1.27972239 
Ti      -0.37965813      -0.08486681       9.57182296      -1.44176075      -0.81658749      -1.13145517      47.86700000      -0.80761845      -1.26774279       0.32984475      -0.80761845      -1.26774279       0.32984475 
Ti      -0.52995728       1.46858498      11.54371315       4.29273662       0.56619416      -0.75415636      47.86700000      -0.15821159      -0.24121767       0.57039100      -0.15821159      -0.24121767       0.57039100 
Ti      -0.97548477       2.99119896       0.31613113       0.88337136       3.19894953      -0.67394606      47.86700000      -0.15780347       0.07356901       0.27784505      -0.15780347       0.07356901       0.27784505 
Ti      -1.00070531       4.78817083       2.68428180       2.25190397       0.48387287      -0.76481014      47.86700000      -0.19916385      -0.30937977      -1.21616184      -0.19916385      -0.30937977      -1.21616184 
Ti      -1.37107968       2.79802574       4.62593856      -0.89504370       1.33249352      -0.26849588      47.86700000       1.11492897      -0.65149742       1.79946674       1.11492897      -0.65149742       1.79946674 
Ti      -1.44703439       4.33459073       7.09631804       1.26491680      -0.69005357      -0.87478442      47.86700000       0.06514773       0.04139803      -0.19415415       0.06514773       0.04139803      -0.19415415 
Ti      -1.93334637       2.13760128       9.26318176       0.64185076       2.88894177       4.29399508      47.86700000      -1.04117805       1.13898967       0.61284822      -1.04117805       1.13898967       0.61284822 
Ti      -1.99635412       4.05069425      11.63829616       1.46278684       1.35479598      -0.09396756      47.86700000      -0.16606097       0.18961650      -0.39787330      -0.16606097       0.18961650      -0.39787330 
Ti      -2.50745474       5.42227685       0.19706723       0.86774278      -2.63599233      -2.60759495      47.86700000      -0.24794791      -0.02380636       0.38115165      -0.24794791      -0.02380636       0.38115165 
Ti      -2.41295660       7.26432680       2.62264218       0.39367577      -0.50315138       0.89983420      47.86700000      -0.77713936      -0.34486675      -0.44938811      -0.77713936      -0.34486675      -0.44938811 
Ti      -2.96027265       4.98730071       4.66001799      -1.16108576      -1.68374863      -1.84914532      47.86700000       3.54703955       2.22527443       4.77932533       3.54703955       2.22527443       4.77932533 
Ti      -3.08464210       6.78981116       6.85865004      -2.50858358       2.32084290       1.07157722      47.86700000      -0.63896947       0.21029346       0.43949564      -0.63896947       0.21029346       0.43949564 
Ti      -3.45501213       4.91112447       8.98148331       2.42891634      -0.39083089       3.11410002      47.86700000       0.31340526      -0.34714060       1.57088473       0.31340526      -0.34714060       1.57088473 
Ti      -3.46661522       6.43875638      11.86512485       0.03932932       0.71637831      -1.53106497      47.86700000       0.11202108      -0.05692536      -0.20449859       0.11202108      -0.05692536      -0.20449859 
Ti       3.28521843       0.34780151       0.23898993      -1.27251762       1.88433786       1.74213751      47.86700000       0.06391644      -0.00218996       0.24226984       0.06391644      -0.00218996       0.24226984 
Ti       3.44798414       2.05749341       2.92087161      -2.29129816      -0.60197122      -1.69324501      47.86700000      -0.23269871       0.22306663      -0.67750036      -0.23269871       0.22306663      -0.67750036 
Ti       3.16535507       0.00414663       5.01393483      -0.60283451      -1.72345898       3.05743727      47.86700000      -0.20992969      -0.02565651      -0.87882499      -0.20992969      -0.02565651      -0.87882499 
Ti       3.05033237       1.68167136       7.26501311      -1.81506178       2.81591540      -0.45586274      47.86700000      -0.49952251      -0.68627327       0.43015112      -0.49952251      -0.68627327       0.43015112 
Ti       2.29376801      -0.26565959       9.35215964       2.98769896      -1.64022152       0.90015673      47.86700000       0.49269206      -0.78132714       0.31141696       0.49269206      -0.78132714       0.31141696 
Ti       2.41391382       1.36785476      12.06355275      -0.41772728       2.64779778      -3.36901499      47.86700000       0.08473006      -0.35622839      -0.33612672       0.08473006      -0.35622839      -0.33612672 
Ti       1.96086296       2.76534028       0.08116770      -3.04657723      -2.12769865      -0.19274844      47.86700000       0.09991541       0.16743894       0.31811613       0.09991541       0.16743894       0.31811613 
Ti       1.93161709       4.72492911       2.56682805      -1.43140784       0.44636573      -2.15971575      47.86700000      -0.36496968      -0.87624782      -0.79790475      -0.36496968      -0.87624782      -0.79790475 
Ti       1.52371126       2.65216806       5.14562174       4.04705896       0.71671373       2.10793492      47.86700000      -0.12644108      -0.10565547      -0.28027234      -0.12644108      -0.10565547      -0.28027234 
Ti       1.57698450       4.03972140       7.02135302       0.16879080      -0.02753845       1.50926949      47.86700000      -1.07915451      -0.02050558      -0.36582301      -1.07915451      -0.02050558      -0.36582301 
Ti       1.06948864       2.21092294       9.47536273      -0.12616930       0.68941681       0.18712012      47.86700000       0.38294230       0.75104846       0.30735130       0.38294230       0.75104846       0.30735130 
Ti       0.77316227       4.03589940      11.70667094       3.86137217      -0.57001580       0.41339944      47.86700000       0.33697667       0.32367976      -0.29677545       0.33697667       0.32367976      -0.29677545 
Ti       0.46649157       5.35879840       0.08129940       1.25691055      -2.54549371      -0.64990076      47.86700000      -0.08061983       0.06249947       0.05156687      -0.08061983       0.06249947       0.05156687 
Ti       0.47227221       7.25360932       2.48283061      -1.48666352      -3.61275812      -0.99630020      47.86700000      -0.23842392      -0.03771054      -0.50002899      -0.23842392      -0.03771054      -0.50002899 
Ti       0.35028004       5.36190163       4.77444982       0.53179453       0.07813716      -2.00510584      47.86700000      -0.57198338      -0.41370349       0.15278738      -0.57198338      -0.41370349       0.15278738 
Ti       0.13130811       6.94938291       7.08381445       2.06549638       1.21632792       4.50642201      47.86700000      -0.33208700      -0.67285819       0.31797480      -0.33208700      -0.67285819       0.31797480 
Ti      -0.33572646       4.90352399       9.03001938      -5.73583044      -0.77642802      -0.26307956      47.86700000      -0.85322172      -0.80604070       0.54955699      -0.85322172      -0.80604070       0.54955699 
Ti      -0.59317144       6.66585666      11.48674961      -2.43239683       0.68722180       2.92358404      47.86700000       0.21200061      -0.17990486       0.03778010       0.21200061      -0.17990486       0.03778010 
Ti       6.29853909       0.29275544       0.21692829      -3.78820054       1.59313471       1.32507533      47.86700000       0.26133666       0.02386490       0.16706930       0.26133666       0.02386490       0.16706930 
Ti       6.42331565       2.04614486       2.77691707       0.08152039       1.19347223       0.77236854      47.86700000      -0.67254672       0.54563739      -2.09164113      -0.67254672       0.54563739      -2.09164113 
Ti       6.12624124       0.12673576       4.67636505       2.44981065      -0.42717412      -1.87832570      47.86700000       0.09284557       0.02876987       1.67409849       0.09284557       0.02876987       1.67409849 
Ti       6.06067654       1.62770306       7.20046548       2.00811209       0.42201367      -0.24271219      47.86700000      -0.00099370       0.36625614      -0.08117468      -0.00099370       0.36625614      -0.08117468 
Ti       5.46132741      -0.43710623       9.18080316       1.57194572      -1.02342056       0.38867509      47.86700000       0.31023204       0.39558409       0.86445254       0.31023204       0.39558409       0.86445254 
Ti       5.42141924       1.16481324      12.00126766      -0.31545376       0.32800021       0.08373157      47.86700000       0.18194557       0.02628990      -0.28205340       0.18194557       0.02628990      -0.28205340 
Ti       4.83881675       2.90940214       0.27988149      -0.40412862       3.30201664      -3.67839932      47.86700000      -0.19108497       0.01887764       0.69240351      -0.19108497       0.01887764       0.69240351 
Ti       4.69391173       4.62170503       2.87658839      -0.07057447       0.70496806       1.05596380      47.86700000      -2.03950840      -0.79694341      -6.47444698      -2.03950840      -0.79694341      -6.47444698 
Ti       4.53396342       2.56762858       4.92542130       1.00935422       0.17040734      -2.87263529      47.86700000      -0.28858154      -0.84536849      -0.47946427      -0.28858154      -0.84536849      -0.47946427 
Ti       4.38243884       3.95843230       6.83827244      -1.31919708       0.69923654      -1.35553580      47.86700000       0.46936411       0.91256915       0.95351427       0.46936411       0.91256915       0.95351427 
Ti       3.84924762       1.88147577       9.47660241      -1.01003188      -2.64796423       1.12830688      47.86700000       0.78471109       0.92010776      -0.30738501       0.78471109       0.92010776      -0.30738501 
Ti       4.01341205       3.77854354      11.29142043      -3.21462215       2.70915149       2.43389700      47.86700000       0.07334097       0.62156450       0.10663206       0.07334097       0.62156450       0.10663206 
Ti       3.36563318       5.43345393       0.17540142      -0.47199950       0.53084234      -1.09117513      47.86700000       0.18366187      -0.00322465       0.41133089       0.18366187      -0.00322465       0.41133089 
Ti       3.32017343       7.17014987       2.82888288      -1.18823783       0.06563154      -1.02689280      47.86700000       0.60134313      -0.17629841      -1.54759388       0.60134313      -0.17629841      -1.54759388 
Ti       3.08663829       5.07302389       4.83687362       2.95201496      -3.56500153      -1.50824356      47.86700000      -0.02243412       0.65222282       0.30636017      -0.02243412       0.65222282       0.30636017 
Ti       2.89062831       6.69318957       7.19345139      -0.59633220      -1.56011814      -1.38144975      47.86700000       0.44589703      -0.21494719      -0.48125486       0.44589703      -0.21494719      -0.48125486 
Ti       2.57112599       4.75304702       9.18951623       0.95933262      -2.18549670       2.29685312      47.86700000       0.36490876      -0.17298365       1.12114809       0.36490876      -0.17298365       1.12114809 
Ti       2.40418607       6.39674641      12.01755703      -2.35105992      -1.56073714       1.95388805      47.86700000      -0.12506538       0.11047006      -0.63295643      -0.12506538       0.11047006      -0.63295643 
