54
Lattice="8.870728496683665 -2.8425469926068123e-15 1.1324443957325822e-38 -4.43536424834183 7.682276228202598 7.663162776850163e-25 5.474060799563254e-39 -1.4310661229599006e-24 14.346354863571726" Properties=species:S:1:pos:R:3:momenta:R:3:masses:R:1:force:R:3:forces:R:3 energy=-307.38789914 config_type=HMD_hcp pbc="T T T"
Ti      -0.80504546       0.81216928      -0.09673698       0.55447127      -6.75116108      -2.97377619      47.86700000      -0.48315246      -0.36910940       1.16166254      -0.48315246      -0.36910940       1.16166254 
Ti      -0.91510967       2.70807636       2.07538443      -1.14134229      -0.75106861      -3.28698639      47.86700000       0.77612977      -0.19767647       1.11611931       0.77612977      -0.19767647       1.11611931 
Ti      -0.68388766       0.98295615       4.69490072      -5.41295443       2.26020123      -3.98366211      47.86700000       0.27605442      -0.62351278       0.00653302       0.27605442      -0.62351278       0.00653302 
Ti       1.14194290       0.78678005       6.97542509      -1.34585804       1.72010060      -1.04337166      47.86700000      -1.19344452       1.41650473       0.27497029      -1.19344452       1.41650473       0.27497029 
Ti       0.73178184      -0.65187975       9.19470482       1.19365470      -3.81318919       1.13461737      47.86700000      -0.06247083      -0.71873742       1.20391604      -0.06247083      -0.71873742       1.20391604 
Ti       0.49756980       1.27846504      12.12232785       2.11243908      -1.25135546      -2.41114559      47.86700000       0.54223998      -0.21433089      -0.85108561       0.54223998      -0.21433089      -0.85108561 
Ti      -2.48116124       3.07660389       0.08581857       0.06222783      -2.24795254       1.42085326      47.86700000       0.16662380       1.73831864      -0.52353170       0.16662380       1.73831864      -0.52353170 
Ti      -2.01074235       4.72893041       2.37993802       2.28736320      -1.15405092       2.25558285      47.86700000      -1.31531694       0.01774453      -0.04673675      -1.31531694       0.01774453      -0.04673675 
Ti      -2.31641472       2.89623826       4.63255473      -0.15827952      -3.26072970       5.75297762      47.86700000      -0.79646968       0.52384420       0.78281188      -0.79646968       0.52384420       0.78281188 
Ti      -1.06530104       3.19768295       7.07865008      -0.34005190       2.13275395      -0.37783408      47.86700000       1.19574485       0.42618454       0.56812088       1.19574485       0.42618454       0.56812088 
Ti      -0.47018698       1.93010281       9.64284299      -1.49982239       2.68516086       2.63756941      47.86700000      -0.96294623      -0.36008885      -0.50533760      -0.96294623      -0.36008885      -0.50533760 
Ti      -0.96883579       3.75393007      11.83183798      -0.38570542      -1.93191604      -7.49554855      47.86700000       0.74306792      -0.29392314       0.23494003       0.74306792      -0.29392314       0.23494003 
Ti      -3.71190165       6.12732421      -0.02369824       1.48797366       0.15159180       1.67183582      47.86700000      -0.73808870      -1.60671875      -0.39379187      -0.73808870      -1.60671875      -0.39379187 
Ti      -3.28776514       7.22792395       2.34278815      -1.36096759       4.37918152       5.57401960      47.86700000      -1.85240881      -0.26273070       0.36394185      -1.85240881      -0.26273070       0.36394185 
Ti      -3.81847772       5.76835220       4.73793443       8.00729034       4.85106310       3.59970958      47.86700000      -0.62848164      -0.00973576      -0.08340618      -0.62848164      -0.00973576      -0.08340618 
Ti      -2.05708408       6.16453465       6.81202553      -3.17174807       6.03945305       1.11071547      47.86700000       0.21864333      -0.13396977       0.20738214       0.21864333      -0.13396977       0.20738214 
Ti      -1.96037886       4.61105580       9.79177724       3.62475485       3.97972199      -0.13057689      47.86700000      -0.50568596      -0.24223035      -0.67323336      -0.50568596      -0.24223035      -0.67323336 
Ti      -2.05604660       6.59799239      11.84843254      -2.51511133       2.22838897      -1.60309792      47.86700000      -0.98694705      -0.51990375      -0.64800392      -0.98694705      -0.51990375      -0.64800392 
Ti       1.78312045       0.65729960       0.02453816      -1.26192430       8.11256747       5.57451756      47.86700000       1.21623064      -0.25215947      -0.35537594       1.21623064      -0.25215947      -0.35537594 
Ti       1.70183558       2.15772191       2.23689057      -0.38610929       2.22106155      -0.44326696      47.86700000       1.35124616       0.00536365       0.49958967       1.35124616       0.00536365       0.49958967 
Ti       2.44464217       0.49836552       4.55720288       0.60504331       2.12995150       0.64336130      47.86700000      -0.30441486      -0.42884016       0.59455533      -0.30441486      -0.42884016       0.59455533 
Ti       3.83191449       1.83704429       7.34711627      -6.40816240      -0.54358616       1.89051812      47.86700000       2.86568820      -3.61946063       0.18664304       2.86568820      -3.61946063       0.18664304 
Ti       3.46202893      -0.06542128       9.24919057       0.53888526       1.85108057      -0.34031581      47.86700000       1.63019163      -4.43506709      -0.29963543       1.63019163      -4.43506709      -0.29963543 
Ti       3.63491304       1.26519392      12.09082468      -5.33488277      -2.01320366       3.28233655      47.86700000       0.51530965      -0.41043150       0.63998195       0.51530965      -0.41043150       0.63998195 
Ti       0.90128032       3.29812728      -0.05818080       2.55231391      -6.48608632       1.86890674      47.86700000      -0.51034606       0.43908617      -1.55943726      -0.51034606       0.43908617      -1.55943726 
Ti       0.42609164       5.16025975       1.52877373       0.90434828      -2.94684252      -2.68205172      47.86700000       2.92455310      -0.35645414       3.42610596       2.92455310      -0.35645414       3.42610596 
Ti       1.48047455       3.38597951       4.45810508      -3.19697723       5.49865081       1.88021353      47.86700000      -0.76692540      -0.86266249       0.10518114      -0.76692540      -0.86266249       0.10518114 
Ti       2.72394458       3.76229515       7.41512106       2.76535095      -3.12352361       1.72803294      47.86700000      -3.88487681       2.69260319      -0.73165154      -3.88487681       2.69260319      -0.73165154 
Ti       2.18797018       1.67862949       9.74612724      -0.56497894       0.32958152       0.51620781      47.86700000      -2.12554751       4.46231968       0.72675201      -2.12554751       4.46231968       0.72675201 
Ti       2.31625877       3.72763337      12.42712371      -1.95153479       2.78954299      -5.84964786      47.86700000      -0.03508913      -0.34883511      -0.22948498      -0.03508913      -0.34883511      -0.22948498 
Ti      -0.76061756       5.81052763      -0.27602088      -0.40747095      -4.66084301      -4.47014925      47.86700000      -1.47323819       0.66894643      -1.14017616      -1.47323819       0.66894643      -1.14017616 
Ti      -0.71163684       7.53406735       2.03933178       2.19765562       2.93382013      -0.39843984      47.86700000      -0.14363211       0.18414372       0.64055794      -0.14363211       0.18414372       0.64055794 
Ti      -0.55854140       4.82630867       4.84615240       3.39062103      -3.27937705       0.03300851      47.86700000      -0.15526550       0.82336409      -0.58804103      -0.15526550       0.82336409      -0.58804103 
Ti       0.33090378       6.50227850       7.15843193      -0.06771923      -1.42651657      -1.32132006      47.86700000       0.66210196      -0.14886028      -0.04063656       0.66210196      -0.14886028      -0.04063656 
Ti       0.76576518       4.47695488       9.43519881       1.97651836       0.73587053      -4.15032759      47.86700000       0.32089394      -0.46493958      -0.07782145       0.32089394      -0.46493958      -0.07782145 
Ti       0.99216118       6.01541441      11.69404302      -1.25070080      -4.92429571       0.34676973      47.86700000      -1.50657557       0.57521081       0.03989885      -1.50657557       0.57521081       0.03989885 
Ti       5.21088532       0.91215705       0.40282171      -6.31306546      -5.63497301       5.06179889      47.86700000      -0.21656325      -0.38284914      -0.89849133      -0.21656325      -0.38284914      -0.89849133 
Ti       5.62410558       1.84515521       2.46743955      -2.06035456      -2.34813939      -4.62870470      47.86700000      -1.42740807       0.15153393       0.36673271      -1.42740807       0.15153393       0.36673271 
Ti       5.11185307      -0.29761167       4.72794920       2.90687612      -4.26712703      -4.97941493      47.86700000      -4.17295285       6.57585468      -2.74148147      -4.17295285       6.57585468      -2.74148147 
Ti       6.63070714       1.14623680       7.64134490      -0.28046644      -0.11955262      -5.50130475      47.86700000       0.00540757       0.63923211      -1.87587275       0.00540757       0.63923211      -1.87587275 
Ti       6.11421669      -0.46331277       9.81133766      -6.47078258      -0.45162231      -0.16621730      47.86700000       2.32239384      -2.50298545      -0.05539569       2.32239384      -2.50298545      -0.05539569 
Ti       6.58352806       0.96495213      12.19205481       1.91580675       2.61523961      -1.24105189      47.86700000      -0.01176752       0.23353347      -0.14340744      -0.01176752       0.23353347      -0.14340744 
Ti       3.31683392       2.85065964       0.02563498      -0.66176405       2.56702018       1.43573721      47.86700000       0.71734616       1.74497096      -0.11880992       0.71734616       1.74497096      -0.11880992 
Ti       3.82514109       4.38679019       2.61913832       2.81923829      -1.44140541      -0.58403277      47.86700000      -0.29286754       0.27418945      -0.45981736      -0.29286754       0.27418945      -0.45981736 
Ti       3.82494331       2.41449742       4.74571729       2.14028619       3.56207962       1.63051327      47.86700000       0.25935072       0.39080904      -0.43677874       0.25935072       0.39080904      -0.43677874 
Ti       5.06883962       4.40639352       7.27906699      -1.44123125       1.34397990      -4.60457355      47.86700000       0.56117003      -1.66261947      -0.13197057       0.56117003      -1.66261947      -0.13197057 
Ti       5.40185063       1.63789556      10.14911208      -0.33636408       0.90551946       6.80894126      47.86700000      -0.40205464       4.20353696      -0.40719286      -0.40205464       4.20353696      -0.40719286 
Ti       5.20969763       3.86765466      12.19692904      -4.43005106      -1.41125951       1.25623917      47.86700000      -0.34863796       0.35625037      -0.24987912      -0.34863796       0.35625037      -0.24987912 
Ti       1.80736681       6.32413591      -0.01477513       4.30143969      -2.63320797      -1.71061334      47.86700000       1.19638258      -2.21488693      -0.78729377       1.19638258      -2.21488693      -0.78729377 
Ti       2.52101304       7.03400296       2.37705589       2.81573861       4.27082420       2.57236750      47.86700000       0.61036678      -0.25400591       1.13670750       0.61036678      -0.25400591       1.13670750 
Ti       1.94719849       5.77288591       5.44194419      -1.95433587      -2.23034854       1.34734228      47.86700000       5.67225725      -5.41471086       1.01893248       5.67225725      -5.41471086       1.01893248 
Ti       3.34945127       6.44033300       7.39743744       0.56053871      -0.16104626      -4.45147415      47.86700000       0.27003916       0.61050894       0.54473956       0.27003916       0.61050894       0.54473956 
Ti       3.87295071       4.38772897       9.57861690       6.67366600      -1.63650035       3.68710080      47.86700000      -0.28052208      -0.39567269       0.89806472      -0.28052208      -0.39567269       0.89806472 
Ti       3.70050951       6.21815644      11.70728046       3.71621502       0.60647341       4.10711167      47.86700000       0.56466446       0.55405468       0.30893752       0.56466446       0.55405468       0.30893752 
