54
Lattice="8.870728496683665 -2.8425469926068123e-15 1.1324443957325822e-38 -4.43536424834183 7.682276228202598 7.663162776850163e-25 5.474060799563254e-39 -1.4310661229599006e-24 28.692709727143452" Properties=species:S:1:pos:R:3:momenta:R:3:masses:R:1:force:R:3:forces:R:3 energy=-303.529701739 config_type=HMD_hcp_surf pbc="T T T"
Ti       0.01499778      -0.63418748       0.49840978      -1.34283284       1.60372540      -0.67171464      47.86700000       0.14711755       0.40328422       0.09459471       0.14711755       0.40328422       0.09459471 
Ti       0.05181809       1.66766356       2.40400547       1.80330258       2.34704650       2.95033568      47.86700000       0.12920128      -0.29144733      -0.50720933       0.12920128      -0.29144733      -0.50720933 
Ti       0.13802643       0.31988746       4.98164019      -0.23632081       1.53703928      -0.61517127      47.86700000       0.63342240      -0.43082856      -1.14325354       0.63342240      -0.43082856      -1.14325354 
Ti       0.09282004       1.84370525       7.03332943       0.11770663       2.44093941       2.32383301      47.86700000       0.04868814       0.39687806       0.27291374       0.04868814       0.39687806       0.27291374 
Ti       0.23885076       0.08460941       9.34824555      -2.81387170      -1.22265994       0.96739670      47.86700000      -1.39209149       0.31669163      -0.06038099      -1.39209149       0.31669163      -0.06038099 
Ti      -0.36598808       2.01887127      12.06136391      -0.18767913      -0.07010770       2.41095011      47.86700000      -1.12700732      -9.60006189      -0.27866666      -1.12700732      -9.60006189      -0.27866666 
Ti      -1.35213537       2.38894276       0.16543716      -0.31225596      -2.50177954       2.43731432      47.86700000      -0.28684481       0.10893100       0.16512701      -0.28684481       0.10893100       0.16512701 
Ti      -1.50528840       4.43089594       2.12037989      -1.13863228      -2.36185055       0.08408585      47.86700000       0.26905035      -0.67865924       1.10139615       0.26905035      -0.67865924       1.10139615 
Ti      -1.22559321       2.57362132       4.58360188      -1.41984925      -2.50067571       2.74139510      47.86700000      -0.35791395       0.94739716       0.23958131      -0.35791395       0.94739716       0.23958131 
Ti      -1.35994129       4.36387198       7.01281011       2.26084499      -1.52969507      -1.23612463      47.86700000      -0.33032133      -0.03482391       0.71161981      -0.33032133      -0.03482391       0.71161981 
Ti      -1.55667861       2.66796940       9.43760536      -0.83523334      -2.25917651      -1.27991890      47.86700000       0.01529467      -0.23617151      -0.14343753       0.01529467      -0.23617151      -0.14343753 
Ti      -1.60019737       3.88719515      12.12511038       1.22879384       0.95285424       0.58694717      47.86700000       0.35624035       3.96916701       0.31752626       0.35624035       3.96916701       0.31752626 
Ti      -2.39203450       4.86124890      -0.40165242       1.07611248       1.33582280      -3.03602900      47.86700000      -7.93499568      -0.14469755       0.22854587      -7.93499568      -0.14469755       0.22854587 
Ti      -2.96501786       6.74228485       2.58174584      -1.28599775       2.95894961      -1.20543417      47.86700000      -0.71068970       0.19587868       0.47179446      -0.71068970       0.19587868       0.47179446 
Ti      -2.82751068       5.36382902       4.97573289       0.92933730       2.07054515      -0.50486633      47.86700000      -0.14167652       0.08190156      -0.52672544      -0.14167652       0.08190156      -0.52672544 
Ti      -2.76360877       7.03145514       7.10860105       0.81863055      -0.40699783      -1.04471354      47.86700000      -0.40903214      -0.89887961       0.34204763      -0.40903214      -0.89887961       0.34204763 
Ti      -3.12090836       5.31728989       9.53956866       0.40718640      -3.31594018      -3.14895452      47.86700000       0.96212094      -0.51427023       0.61027811       0.96212094      -0.51427023       0.61027811 
Ti      -2.93662852       7.15129751      11.60022746       0.68249828       0.78226979       0.39368612      47.86700000       0.27929774      -0.24374214       0.80088727       0.27929774      -0.24374214       0.80088727 
Ti       3.02984946      -0.33930243       0.57863929       0.88032003      -0.84964378      -1.72555728      47.86700000      -0.24005263      -0.18706134      -0.54799045      -0.24005263      -0.18706134      -0.54799045 
Ti       2.93902293       1.88019426       2.28837169      -1.93355040       3.33728197       0.60533797      47.86700000      -0.40803058      -0.27766794       0.79836250      -0.40803058      -0.27766794       0.79836250 
Ti       3.17377741       0.49124513       5.10021531       1.29689345      -2.51540185       0.44129648      47.86700000      -0.48223026      -0.40196506      -0.34734575      -0.48223026      -0.40196506      -0.34734575 
Ti       2.95960185       1.74446266       7.03341810       1.12589175      -0.40506304       1.19526411      47.86700000       0.67109738       0.32969541      -0.00141838       0.67109738       0.32969541      -0.00141838 
Ti       3.02886846       0.21521842       9.57590725      -0.07312294      -2.30079853      -1.90025001      47.86700000       0.34087205      -0.39158925       0.12584830       0.34087205      -0.39158925       0.12584830 
Ti       2.85135313       1.46661896      12.13766899       1.15879555      -0.36284756       0.55762794      47.86700000      -0.37894043       0.64876505      -0.19312005      -0.37894043       0.64876505      -0.19312005 
Ti       2.01804411       2.45942449      -0.30485090      -5.56412714       2.07986192      -0.58933224      47.86700000      -3.03911902       0.50065995      -0.16382647      -3.03911902       0.50065995      -0.16382647 
Ti       1.11078422       4.39676976       1.98117485      -2.37575432       1.53497967      -1.72667006      47.86700000      -0.12496860      -1.35440661       0.54200627      -0.12496860      -1.35440661       0.54200627 
Ti       1.85131456       2.98845786       4.54932492       2.38157897       1.49791472       0.50494029      47.86700000      -0.80559405      -0.63573986       0.12532374      -0.80559405      -0.63573986       0.12532374 
Ti       1.47549415       4.33162038       7.21192077       1.03760131       4.04577894       4.56968499      47.86700000       0.09568882      -0.16352220       0.42778183       0.09568882      -0.16352220       0.42778183 
Ti       1.51651107       2.78600535       9.67795276       0.76377415      -3.46414419       1.61428760      47.86700000       0.26067561      -0.82679039      -0.24956517       0.26067561      -0.82679039      -0.24956517 
Ti       0.74554504       3.91630513      12.25691474       3.44702186      -0.34654427      -0.79309792      47.86700000       1.46633307       6.97934122       0.07078140       1.46633307       6.97934122       0.07078140 
Ti      -0.18905217       4.77750314      -0.61596691       1.92706977       0.11830495      -1.61840709      47.86700000       6.99104460       0.28619766      -0.36080130       6.99104460       0.28619766      -0.36080130 
Ti      -0.03330526       6.83826094       2.78362464      -0.62487633      -0.99595278      -1.12833509      47.86700000      -0.47877620       0.10677578      -0.11400925      -0.47877620       0.10677578      -0.11400925 
Ti       0.28915050       5.04931370       4.89669750       1.80272263      -0.93225985      -2.73118145      47.86700000      -0.87041637       0.68909307      -0.69110745      -0.87041637       0.68909307      -0.69110745 
Ti       0.07692098       6.85609878       7.28910460      -1.55714523      -0.88881026       3.25447619      47.86700000      -0.39230233      -0.26119802      -0.40816699      -0.39230233      -0.26119802      -0.40816699 
Ti      -0.23083752       5.10246693       9.67066685      -3.02091944      -0.34913426       2.20719727      47.86700000       0.36324408       0.75534001       0.25526726       0.36324408       0.75534001       0.25526726 
Ti      -0.09427409       6.96797497      12.25249373      -3.17784760       0.10333591      -2.31275078      47.86700000      -0.02362424      -0.99184504      -0.48716591      -0.02362424      -0.99184504      -0.48716591 
Ti       5.70304703      -0.43879541       0.32734753       2.95566036       1.27378166      -3.10819670      47.86700000       0.40947389      -0.50134185       0.33661037       0.40947389      -0.50134185       0.33661037 
Ti       5.77610788       1.52565768       2.43585311       2.21546538       0.02900615       2.30465501      47.86700000       0.86953705       0.19340848      -0.56168487       0.86953705       0.19340848      -0.56168487 
Ti       6.03607897       0.18733686       4.89796014       0.05341418      -0.49851220      -0.47935012      47.86700000       0.21726093       0.15767648       0.52653523       0.21726093       0.15767648       0.52653523 
Ti       6.13001749       1.96374628       7.15953027       3.03716774      -1.39563361      -1.54219311      47.86700000      -1.01298624      -0.75726937      -0.17857503      -1.01298624      -0.75726937      -0.17857503 
Ti       5.89047057      -0.19690701       9.54292039      -2.57331752      -0.24361876      -1.19010312      47.86700000       0.32275494       0.82108329      -0.14996225       0.32275494       0.82108329      -0.14996225 
Ti       5.67147746       1.38180925      11.82644808      -3.00277864       1.43782301      -1.43104290      47.86700000      -0.31435679       0.44061348       0.16257186      -0.31435679       0.44061348       0.16257186 
Ti       4.24924129       2.31915774      -0.01318745       2.62573668       0.47601753       2.21277575      47.86700000       3.08564228       0.05389178      -0.64073546       3.08564228       0.05389178      -0.64073546 
Ti       4.64209475       4.00020389       2.03443643       0.74973022      -0.42752458      -0.83134807      47.86700000      -0.23907488       1.34950908       0.69270734      -0.23907488       1.34950908       0.69270734 
Ti       4.66504942       2.88072631       4.81141489       0.63928145       0.78971841      -1.24543714      47.86700000       0.27268768       0.12445832      -0.44818844       0.27268768       0.12445832      -0.44818844 
Ti       4.53032118       4.29275816       7.29206447       0.89357356       2.03895272       0.23988263      47.86700000      -0.46794192       0.72304877      -0.96310728      -0.46794192       0.72304877      -0.96310728 
Ti       4.42787383       2.65122143       9.63659973      -1.84861598       0.91270210       2.10075144      47.86700000      -0.08970304       0.15700301      -0.00018946      -0.08970304       0.15700301      -0.00018946 
Ti       4.15085796       4.33176660      11.95119440      -1.93620027      -1.51524482      -1.08538650      47.86700000      -0.08587999      -0.53580026      -0.81310766      -0.08587999      -0.53580026      -0.81310766 
Ti       2.96441782       4.54006632      -0.16999911      -0.95876243       0.85593196       0.68518683      47.86700000      -0.05245358      -0.52707467      -0.01976439      -0.05245358      -0.52707467      -0.01976439 
Ti       2.59969916       6.38607873       2.54481144       1.40776821       3.25980695      -0.33372309      47.86700000       1.83936636       0.79068102      -0.80521623       1.83936636       0.79068102      -0.80521623 
Ti       2.81661206       5.34562121       4.91293027       2.31970297      -2.95594984       1.13706156      47.86700000       1.69759906      -0.37272480      -0.04461717       1.69759906      -0.37272480      -0.04461717 
Ti       2.74387017       6.98433005       6.74943690      -1.85475165      -4.46235334       1.94653613      47.86700000       0.84174814      -0.02758613       1.32809110       0.84174814      -0.02758613       1.32809110 
Ti       2.93427810       5.14669800       9.44230494      -1.72476161       2.05153899      -0.67190857      47.86700000      -0.01063203       0.60107970       0.94373371      -0.01063203       0.60107970       0.94373371 
Ti       2.82129045       7.06406377      11.87147726      -0.24437872      -0.79360917      -1.28570804      47.86700000      -0.37780326      -0.84128614      -0.84259433      -0.37780326      -0.84128614      -0.84259433 
