54
Lattice="8.870728496683665 -2.8425469926068123e-15 1.1324443957325822e-38 -4.43536424834183 7.682276228202598 7.663162776850163e-25 5.474060799563254e-39 -1.4310661229599006e-24 28.692709727143452" Properties=species:S:1:pos:R:3:momenta:R:3:masses:R:1:force:R:3:forces:R:3 energy=-303.838289755 config_type=HMD_hcp_surf pbc="T T T"
Ti       0.04500500       0.19017732      -0.24636096       0.84136115       2.43782568      -2.97689691      47.86700000       0.03365661      -0.36876644       0.51888861       0.03365661      -0.36876644       0.51888861 
Ti       0.01660234       1.78800241       2.39649930       0.26999346       0.33566793      -0.15010772      47.86700000      -0.03959154      -0.98445204      -0.12594649      -0.03959154      -0.98445204      -0.12594649 
Ti       0.15474767      -0.03742291       4.98468549       1.90323761       0.06479870       3.40961009      47.86700000      -0.66592020       0.65437630      -0.27876862      -0.66592020       0.65437630      -0.27876862 
Ti       0.04371141       1.95255538       7.34560286       0.57463258       3.70591884       2.06280808      47.86700000       0.18641342      -0.25584041      -0.50676636       0.18641342      -0.25584041      -0.50676636 
Ti       0.03367437      -0.14213964       9.22511868      -0.11812023      -1.08489058      -4.08624392      47.86700000      -0.60406476       0.86477900       1.31478496      -0.60406476       0.86477900       1.31478496 
Ti       0.13450256       1.56900307      12.12980487       1.49867168      -2.16228850       2.59017020      47.86700000      -0.41149232      -0.06739089      -0.22141273      -0.41149232      -0.06739089      -0.22141273 
Ti      -1.68235901       2.56643155      -0.14243830      -2.43741354       0.23873852      -2.68778544      47.86700000       0.34922815       0.07097953      -0.09465764       0.34922815       0.07097953      -0.09465764 
Ti      -1.32908722       4.02639147       2.40872920       1.59933902      -2.66408244       0.13049660      47.86700000      -0.90538444       1.04717653      -0.14020985      -0.90538444       1.04717653      -0.14020985 
Ti      -1.45762528       2.61818741       4.95766273       0.59705272       0.50981110       2.56919574      47.86700000       0.48589027      -0.38633715      -0.89407813       0.48589027      -0.38633715      -0.89407813 
Ti      -1.82207719       4.39285505       7.40313724      -4.07624864       0.99028571       2.48505692      47.86700000       1.37238125      -0.83519361      -0.73434585       1.37238125      -0.83519361      -0.73434585 
Ti      -1.67350580       2.43024916       9.53828537      -2.26575442      -2.32940734      -0.21806123      47.86700000       0.55193299      -0.46773356       0.29717281       0.55193299      -0.46773356       0.29717281 
Ti      -1.34553037       3.99765892      11.95128100       1.58794603      -3.78240503      -0.62107404      47.86700000      -0.16380721       0.45353424      -0.58739963      -0.16380721       0.45353424      -0.58739963 
Ti      -2.98232954       5.17065629      -0.01131525      -0.27932621       1.03492075       0.52604232      47.86700000      -0.04105093       0.20188828       0.49770642      -0.04105093       0.20188828       0.49770642 
Ti      -2.96530240       6.80057859       2.67686245       0.31176121      -0.40012093       3.22181990      47.86700000       0.47750035      -0.27326051      -1.17284588       0.47750035      -0.27326051      -1.17284588 
Ti      -2.86835312       4.99488175       4.87321769       1.29407056      -1.62993306       1.38950402      47.86700000      -0.31506779       0.42262213      -0.54834898      -0.31506779       0.42262213      -0.54834898 
Ti      -2.88041436       6.64161024       7.17853220       1.48859368      -1.69531435      -0.86860822      47.86700000       0.39865331       0.82774310      -0.41919209       0.39865331       0.82774310      -0.41919209 
Ti      -3.07355150       5.20123187       9.39529009      -1.48512266       0.10954396      -1.67866828      47.86700000       0.01851848      -0.47783566       1.11801498       0.01851848      -0.47783566       1.11801498 
Ti      -2.92679383       6.70793279      11.77697349       0.39586931      -1.58968630      -2.23769749      47.86700000      -0.09307517       0.50255574       0.19828562      -0.09307517       0.50255574       0.19828562 
Ti       2.97054091       0.12752289       0.20809872       0.06524204       1.53518951       2.79495600      47.86700000      -0.36679933      -0.60619497       0.08880232      -0.36679933      -0.60619497       0.08880232 
Ti       3.00881803       1.59369223       2.33122774       1.10308456      -1.12886602      -0.29793765      47.86700000       0.19565105       0.22902056      -0.30236203       0.19565105       0.22902056      -0.30236203 
Ti       2.80885282       0.12509260       4.69541941      -1.34780473       1.67608467      -0.79597884      47.86700000       1.14793985      -0.40074394       0.63794721       1.14793985      -0.40074394       0.63794721 
Ti       3.01359722       1.95580926       7.01201326       0.82069537       2.96962036      -1.69943618      47.86700000      -0.15157119      -1.44276071       1.52338564      -0.15157119      -1.44276071       1.52338564 
Ti       2.85522689      -0.21252268       9.57380314      -0.71162139      -1.78042181      -0.52963191      47.86700000       0.39814404       1.14588630      -0.25356733       0.39814404       1.14588630      -0.25356733 
Ti       3.12737334       1.55054497      12.00584096       2.34511705      -1.99481609       0.74425164      47.86700000      -0.09744380       0.42516643      -0.78731376      -0.09744380       0.42516643      -0.78731376 
Ti       1.45067107       2.52925198      -0.06348445      -0.18703442      -0.26297267      -1.09898450      47.86700000      -0.04653390       0.32792881       0.24747943      -0.04653390       0.32792881       0.24747943 
Ti       1.51287595       4.22523282       2.44023377       0.99977792      -1.00763668      -0.05266365      47.86700000       0.47418928      -0.59173170      -0.84046399       0.47418928      -0.59173170      -0.84046399 
Ti       1.40550212       2.51041833       4.98191365      -1.23604996      -0.39874304       2.88519463      47.86700000      -0.17156838       0.70089083      -1.01458457      -0.17156838       0.70089083      -1.01458457 
Ti       1.56460435       4.41597425       7.26375936       0.69867228       1.95953142       0.57714814      47.86700000      -0.60190857      -0.41729381      -0.77233039      -0.60190857      -0.41729381      -0.77233039 
Ti       1.32852545       2.46352917       9.69664417      -1.45269347      -1.37401161       1.90407791      47.86700000       0.80806399       0.32009499       0.55145338       0.80806399       0.32009499       0.55145338 
Ti       1.33990895       4.32364510      12.05356450      -1.78882403       0.56721281       1.54950953      47.86700000       0.41911467      -0.14102428      -0.36032689       0.41911467      -0.14102428      -0.36032689 
Ti      -0.10009823       4.89500060      -0.12248481      -1.20890244      -3.32484426      -2.64527669      47.86700000       0.39378841       0.21009102       0.44563031       0.39378841       0.21009102       0.44563031 
Ti       0.30038641       6.53367196       2.09396303       3.82756767      -4.15914009      -2.98771360      47.86700000      -1.13657619       0.63139591       0.48435506      -1.13657619       0.63139591       0.48435506 
Ti      -0.09637475       5.20475772       4.62039565      -1.23901705       1.44898941      -1.47614792      47.86700000       0.35694775      -0.00261053       0.98529437       0.35694775      -0.00261053       0.98529437 
Ti       0.01347904       6.81757934       7.29072584       0.10411801       0.01164886       0.61946711      47.86700000      -0.25492270       0.05788033      -1.20037534      -0.25492270       0.05788033      -1.20037534 
Ti       0.03977746       5.05337724       9.45896990       0.00891786      -1.27005694      -0.62322729      47.86700000      -0.55954729      -0.12911302       0.94660254      -0.55954729      -0.12911302       0.94660254 
Ti      -0.03244822       6.85522597      12.04589479      -0.23431214      -0.00721745       1.19378537      47.86700000       0.28520740      -0.26067193      -0.15936074       0.28520740      -0.26067193      -0.15936074 
Ti       6.05523788       0.11651503       0.18930936       2.44577822       1.68768573       2.21958493      47.86700000       0.33921702      -0.18047271      -0.26173128       0.33921702      -0.18047271      -0.26173128 
Ti       5.95427436       1.68037030       2.31990943       0.05217103      -0.10197120      -0.11658774      47.86700000      -0.10746358       0.24421469       0.36024473      -0.10746358       0.24421469       0.36024473 
Ti       5.83335654       0.13431859       4.89025939      -1.38667481       2.01464561       1.76539967      47.86700000      -0.13820510      -0.01320321       0.17016851      -0.13820510      -0.01320321       0.17016851 
Ti       5.97164322       1.50724556       6.80264768       0.53894981      -2.94081830      -5.21935213      47.86700000      -0.64442511       0.21948998       1.01383247      -0.64442511       0.21948998       1.01383247 
Ti       5.74508383      -0.03320534       9.41150071      -2.48056568      -0.18080450      -1.65470193      47.86700000       0.43428834       0.33005480       0.58343850       0.43428834       0.33005480       0.58343850 
Ti       5.85122928       1.63070281      12.13278582      -0.81632126      -1.42302534       3.00124686      47.86700000       0.23378088      -0.09565564      -0.42028413       0.23378088      -0.09565564      -0.42028413 
Ti       4.43242419       2.76505882      -0.18500965      -0.23811970       2.97050150      -2.70967240      47.86700000      -0.24574224       0.27884413       0.46299843      -0.24574224       0.27884413       0.46299843 
Ti       4.43293089       4.35475220       2.53158676       0.30322432       0.95091239       1.27232229      47.86700000       0.50161036      -0.34536394      -1.09675483       0.50161036      -0.34536394      -1.09675483 
Ti       4.33404816       2.65262539       4.70758227      -1.28165865       0.86130959      -1.25018633      47.86700000       0.23087296      -0.24413901      -0.31244802       0.23087296      -0.24413901      -0.31244802 
Ti       4.37375152       4.29784492       6.99361603      -1.24267276       0.06698673      -2.68874056      47.86700000       0.11865947       0.02537053       0.67102442       0.11865947       0.02537053       0.67102442 
Ti       4.60597433       2.75722720       9.72022862       1.59985595       2.30613698       1.74705841      47.86700000      -1.23215175      -0.80514181      -0.06181222      -1.23215175      -0.80514181      -0.06181222 
Ti       4.29992620       4.57996283      12.02332114      -2.01326596       3.83503560       1.31766680      47.86700000      -0.04166795      -0.65931401      -0.40590725      -0.04166795      -0.65931401      -0.40590725 
Ti       3.09345067       5.28481081      -0.05666497       1.69379869       2.47446376       0.08448090      47.86700000      -0.14802645       0.01076442       0.71942431      -0.14802645       0.01076442       0.71942431 
Ti       3.07207542       6.89672740       2.77536995       1.87772923       1.33134007       4.52652514      47.86700000      -0.00307531       0.21326124      -1.37481460      -0.00307531       0.21326124      -1.37481460 
Ti       2.88165386       5.06805345       4.61723462      -1.44941550      -0.49183919      -1.20392970      47.86700000      -0.19950388       0.27613000       1.40817139      -0.19950388       0.27613000       1.40817139 
Ti       3.10548954       6.80476938       7.11953683       1.54203574       0.04078685      -1.50821112      47.86700000      -0.78561671       0.06027294      -0.15959709      -0.78561671       0.06027294      -0.15959709 
Ti       2.83434498       5.18879341       9.44778076      -2.00247919       0.40599847      -1.20343107      47.86700000       0.20203894      -0.45225834       0.62426849       0.20203894      -0.45225834       0.62426849 
Ti       3.02712910       6.85141240      11.92392288       0.59015407       0.64372221      -1.30042478      47.86700000      -0.24148546       0.15209106      -0.36136821      -0.24148546       0.15209106      -0.36136821 
