53
Lattice="8.870728496683665 -2.8425469926068123e-15 1.1324443957325822e-38 -4.43536424834183 7.682276228202598 7.663162776850163e-25 5.474060799563254e-39 -1.4310661229599006e-24 14.346354863571726" Properties=species:S:1:pos:R:3:momenta:R:3:masses:R:1:force:R:3:forces:R:3 energy=-311.696722889 config_type=HMD_hcp_vac pbc="T T T"
Ti      -0.04985419       1.85689762       2.50310502      -4.28133889       3.86913451      -2.97408477      47.86700000       0.59127122      -0.10383445       0.49630708       0.59127122      -0.10383445       0.49630708 
Ti       0.14510899       0.05853553       4.70037394       1.63710292      -0.98276192       0.87939634      47.86700000      -0.00712436      -0.03236511       0.19323113      -0.00712436      -0.03236511       0.19323113 
Ti      -0.06514030       1.96895834       7.35093792      -4.42134737      -1.25758468       0.73692938      47.86700000      -0.67892568      -0.32441655      -0.51589975      -0.67892568      -0.32441655      -0.51589975 
Ti       0.25160262      -0.00319957       9.57635230       1.21791702      -2.00099838      -2.50611440      47.86700000      -1.17219482      -0.69415565       0.03992964      -1.17219482      -0.69415565       0.03992964 
Ti      -0.14057154       1.47377934      12.11665856       2.04436718       2.99985673      -1.19140410      47.86700000       0.23626604       0.10935618       0.20128065       0.23626604       0.10935618       0.20128065 
Ti      -1.47713297       2.25664232       0.24068354      -0.67152724      -0.43718271      -1.26058042      47.86700000      -0.93698884       0.41001306       0.16628757      -0.93698884       0.41001306       0.16628757 
Ti      -1.59636987       4.29785038       2.63623980       1.12471695       0.14545996      -1.55942472      47.86700000       0.26536525       0.49623549      -1.28854642       0.26536525       0.49623549      -1.28854642 
Ti      -1.39585330       2.40258867       4.90839822       1.62094991      -2.53154988      -0.97620539      47.86700000      -0.33781315       0.38248559      -0.06093798      -0.33781315       0.38248559      -0.06093798 
Ti      -1.27155389       3.98321000       7.30720058      -0.96150115       0.29886823      -1.16482124      47.86700000      -0.91054329       0.77576494      -0.10278874      -0.91054329       0.77576494      -0.10278874 
Ti      -1.43085437       2.84789845       9.92110392       0.66609753      -2.18541000      -0.50595469      47.86700000      -0.18576750      -3.76890697      -2.79736966      -0.18576750      -3.76890697      -2.79736966 
Ti      -1.53935506       4.12903951      11.74549158      -0.12229508      -0.25722952       1.60383153      47.86700000      -0.19415239       2.40766228       3.15830999      -0.19415239       2.40766228       3.15830999 
Ti      -3.08412418       4.90501848      -0.08310670       1.20525850       0.93170027       1.06299400      47.86700000       0.37265673      -0.42669602       0.53183777       0.37265673      -0.42669602       0.53183777 
Ti      -3.04611610       6.89101352       2.25760501       2.27863605       1.44214690       2.78523959      47.86700000       0.01707266       0.09817660       0.08303338       0.01707266       0.09817660       0.08303338 
Ti      -2.65258305       5.52440841       4.88431946       0.86270474      -2.48542837      -1.01618656      47.86700000       0.10788302      -1.09952749      -0.58565254       0.10788302      -1.09952749      -0.58565254 
Ti      -2.91502148       6.77130116       7.16143376       0.95708949       1.42640302       3.06975317      47.86700000       0.82922271       0.65797101       0.29316538       0.82922271       0.65797101       0.29316538 
Ti      -3.15067878       4.97417578       9.47691693       0.08599520      -2.40101425       0.16701613      47.86700000       0.01077989       0.88495696      -0.24998864       0.01077989       0.88495696      -0.24998864 
Ti      -2.96002824       6.74981723      12.12291595       1.25380195      -0.25613972      -2.08849845      47.86700000      -0.16453035      -0.22647753      -0.13022745      -0.16453035      -0.22647753      -0.13022745 
Ti       2.86631749      -0.19649981       0.13370951       1.39487370      -2.05852761      -1.16753010      47.86700000       0.07161586       1.13732004      -0.49363046       0.07161586       1.13732004      -0.49363046 
Ti       2.93018507       1.91502022       2.20858630      -0.99458705      -1.06810550      -0.35892058      47.86700000      -0.10513478      -0.27880452       0.83986860      -0.10513478      -0.27880452       0.83986860 
Ti       3.03889981       0.37348525       4.61601548      -1.61542189      -1.81560166      -0.81089146      47.86700000       0.30610848      -0.98797215       0.58408531       0.30610848      -0.98797215       0.58408531 
Ti       2.85121659       1.66010160       7.34172365       4.73159187       4.09589147       0.04024433      47.86700000       0.48487459       0.39631545      -0.83462210       0.48487459       0.39631545      -0.83462210 
Ti       2.94921252      -0.34658842       9.82078526       0.04600149      -2.13354047      -0.54024599      47.86700000       0.55233160       0.39710096      -1.07373003       0.55233160       0.39710096      -1.07373003 
Ti       2.81827833       1.60927814      12.14763965       0.83353122       0.64202716      -1.41456196      47.86700000      -0.17892398      -0.29052500      -0.81751238      -0.17892398      -0.29052500      -0.81751238 
Ti       1.11716129       2.69568557       0.18676123       0.28683498      -0.03392853       0.46512220      47.86700000       0.90243435      -0.77044698      -0.74399495       0.90243435      -0.77044698      -0.74399495 
Ti       1.48202534       4.41831482       2.39145194       2.13171953      -1.76985044       1.14303462      47.86700000       0.20863908       0.10842258      -0.21196578       0.20863908       0.10842258      -0.21196578 
Ti       1.50607699       2.54935948       4.87102371      -2.20409184       0.27060626       1.89411505      47.86700000       0.50756216       0.31908187      -0.20111770       0.50756216       0.31908187      -0.20111770 
Ti       1.40216417       4.56211488       6.88960377      -4.13698162      -2.03897061      -1.80265495      47.86700000       0.71406220      -0.69646143       0.65742317       0.71406220      -0.69646143       0.65742317 
Ti       1.47235186       2.29817371       9.37275617       0.96835648       2.75539497       3.08506647      47.86700000       0.52500906       0.85646695       1.73243692       0.52500906       0.85646695       1.73243692 
Ti       1.39491325       3.97251547      12.06377298      -0.73701112      -2.68387613      -0.13258262      47.86700000       0.28191734       0.49719505      -0.64849056       0.28191734       0.49719505      -0.64849056 
Ti      -0.14102768       5.14265744      -0.30250643       0.49652764       2.68256352      -0.63302603      47.86700000      -0.13814616      -0.19103939       1.31833590      -0.13814616      -0.19103939       1.31833590 
Ti       0.04126801       6.91397561       2.33020778       2.89999516       2.59453080      -3.14779327      47.86700000      -0.26141792      -0.00327716       0.42087572      -0.26141792      -0.00327716       0.42087572 
Ti       0.03248953       4.84126124       4.66650298       1.02202322      -1.32225599       1.27481204      47.86700000       0.39789860       1.71942948      -0.04257614       0.39789860       1.71942948      -0.04257614 
Ti       0.28294683       7.05502090       7.12627154      -5.18243098       0.44175569      -0.44958437      47.86700000      -1.54383901      -0.69704974      -0.29359381      -1.54383901      -0.69704974      -0.29359381 
Ti       0.22375728       4.89917419       9.46421120      -2.59253240       1.67946356       1.23128064      47.86700000      -0.08653285       0.86707766      -0.06591840      -0.08653285       0.86707766      -0.06591840 
Ti       0.03890840       6.74934099      11.84272581      -0.00558387       1.24875592       1.82646310      47.86700000       0.28132512       0.04150283       0.41973741       0.28132512       0.04150283       0.41973741 
Ti       5.88644537      -0.02428807      -0.04079909       1.52921824       0.63112947      -1.37816187      47.86700000      -0.55528685      -0.22994673      -0.25989319      -0.55528685      -0.22994673      -0.25989319 
Ti       6.07907250       1.89297068       2.12770862       4.88914939       4.67348845      -2.34456052      47.86700000      -0.73927331      -0.07249337      -0.39401396      -0.73927331      -0.07249337      -0.39401396 
Ti       6.09348983       0.04431665       4.75348711      -3.09555772       0.82946624       3.08329614      47.86700000      -0.38108301      -0.59185837       0.08248474      -0.38108301      -0.59185837       0.08248474 
Ti       5.77335725       1.78348267       7.40757967      -0.86759943       0.92505228       0.28845451      47.86700000       0.81235702       0.06738111      -0.79242616       0.81235702       0.06738111      -0.79242616 
Ti       5.96901092      -0.15641533       9.52664181      -0.37948611       0.34217273       3.32996735      47.86700000       0.45001850       0.80464735       0.21876675       0.45001850       0.80464735       0.21876675 
Ti       5.75343633       1.79247610      12.10993610      -1.18272752      -0.58928268      -1.44600310      47.86700000      -0.02245501      -0.73186907      -0.08344145      -0.02245501      -0.73186907      -0.08344145 
Ti       3.95674791       2.66040459      -0.04592527      -1.80144301      -3.20778869      -2.06891191      47.86700000       1.02339360       0.11715920       0.05988865       1.02339360       0.11715920       0.05988865 
Ti       4.40057047       4.52756972       2.55463165       0.35323734       0.29218105      -0.98414889      47.86700000       0.36560955      -0.35255092      -0.54533712       0.36560955      -0.35255092      -0.54533712 
Ti       4.69528087       2.65450500       4.65933079      -0.78599585       0.50949524      -2.80456630      47.86700000      -0.15720205      -0.24661319       0.29247016      -0.15720205      -0.24661319       0.29247016 
Ti       4.50026782       4.39495275       6.94432790      -3.21385762       1.30927174       4.97601932      47.86700000      -0.32873483      -0.81158837       0.38475194      -0.32873483      -0.81158837       0.38475194 
Ti       4.46320923       2.49754077       9.48036747      -0.26229117      -0.14092871       5.89350262      47.86700000      -0.75253834      -0.50430511       0.66080404      -0.75253834      -0.50430511       0.66080404 
Ti       4.25247938       4.29967434      11.80344412      -0.49014852      -0.35857685       3.29848319      47.86700000       0.16351703      -0.57824745       0.28017657       0.16351703      -0.57824745       0.28017657 
Ti       3.02777817       5.38040440       0.01690797      -3.60214284      -2.21570535       0.39625482      47.86700000      -0.14191799      -0.27738874      -0.20709021      -0.14191799      -0.27738874      -0.20709021 
Ti       2.91439143       6.99521203       2.42222863       5.29823985       1.16768530       2.25114500      47.86700000       0.19083102      -0.15641762      -0.38445546       0.19083102      -0.15641762      -0.38445546 
Ti       3.30212641       5.01908188       4.97607265      -2.16741002       2.04518908       0.39323721      47.86700000      -0.63984118       0.55639554      -0.62536979      -0.63984118       0.55639554      -0.62536979 
Ti       3.09254350       6.98354394       7.02451677       0.84266100      -1.73445725      -3.40900123      47.86700000      -0.10743237       0.09915354       0.68295951      -0.10743237       0.09915354       0.68295951 
Ti       2.69329224       4.76172461       9.33656921       2.17378468      -2.87675183      -0.34547003      47.86700000       0.92347831       0.75392158       0.54908550       0.92347831       0.75392158       0.54908550 
Ti       3.05443751       6.66714645      11.73808598       0.92292706       0.59375713      -4.69376888      47.86700000      -0.86570096       0.18404176       0.10305734      -0.86570096       0.18404176       0.10305734 
