53
Lattice="9.787706024992827 1.5111959773950004e-32 4.0392805617045097e-38 -1.5111959773950004e-32 9.787706024992827 7.646795577667676e-39 -3.09513434195661e-38 -3.558886819685004e-38 9.787706024992827" Properties=species:S:1:pos:R:3:momenta:R:3:masses:R:1:force:R:3:forces:R:3 energy=-306.911146896 config_type=HMD_bcc_vac pbc="T T T"
Ti       1.95581441       1.87124232       1.72298271      -1.74713141      -3.53290375      -1.54147152      47.86700000      -0.91927492      -0.96451805      -0.45386334      -0.91927492      -0.96451805      -0.45386334 
Ti       0.52765660      -0.40170978       3.32916184       0.70355699      -3.66989641      -1.69795350      47.86700000      -0.18854749      -0.16152215      -0.69500834      -0.18854749      -0.16152215      -0.69500834 
Ti       1.86568486       1.19323175       4.59991946      -4.39601922       0.64754977       5.46863705      47.86700000      -0.65382491       1.75119212       0.84783163      -0.65382491       1.75119212       0.84783163 
Ti      -2.02655505      -1.77626985       8.04846923       0.66416969      -2.52739046      -0.19448125      47.86700000       0.78860253       0.39821815      -0.64219765       0.78860253       0.39821815      -0.64219765 
Ti       1.93707819       1.56040970       8.27633230      -1.06811740      -5.01097663      -1.05351174      47.86700000       0.58563660       0.56568124       0.15844032       0.58563660       0.56568124       0.15844032 
Ti       0.05736355       3.40015955      -0.12986452       6.39093951      -4.97086740       2.32949071      47.86700000       0.29849394      -0.43026011      -0.15762970       0.29849394      -0.43026011      -0.15762970 
Ti       1.83271942       4.98136340       1.68107132      -0.77085394      -1.58914085       1.98240615      47.86700000      -0.57938051       0.38226627      -0.59815357      -0.57938051       0.38226627      -0.59815357 
Ti       0.07359871       3.17568482       3.06591588      -1.43174671      -0.16207041      -1.43353979      47.86700000       0.06862893       0.21829450       1.02574306       0.06862893       0.21829450       1.02574306 
Ti       1.13594798       5.15332807       4.74989441       1.99033497      -2.64162701      -3.31830076      47.86700000      -0.29639365      -0.08921512       1.04618490      -0.29639365      -0.08921512       1.04618490 
Ti       0.09795961       2.82607023       6.50755523       1.64977097      -1.34450602       0.35156768      47.86700000      -0.00294644       0.81187369      -0.87173026      -0.00294644       0.81187369      -0.87173026 
Ti       1.39753404       4.61120837       8.16420600       0.99549227       1.73269787      -0.02860056      47.86700000      -0.85071895       0.43873253      -0.99094994      -0.85071895       0.43873253      -0.99094994 
Ti       0.52678909       6.54890502      -0.37103742      -4.27730830       2.21759744       1.76563678      47.86700000      -1.48518499       0.13532338       0.98057954      -1.48518499       0.13532338       0.98057954 
Ti       2.22286725       8.34886607       1.25350908      -0.43399549       4.85249868       0.81270515      47.86700000      -1.19650309      -0.38874196      -0.12594063      -1.19650309      -0.38874196      -0.12594063 
Ti       0.06533692       6.55571197       2.98512616       1.62744274       3.45122717      -3.31320552      47.86700000       0.04575541       0.59630376      -0.21075386       0.04575541       0.59630376      -0.21075386 
Ti      -0.04768667       9.94571586       6.85698153      -2.61440606      -2.48495570       0.68456445      47.86700000       0.08291530      -1.00320149      -0.52418261       0.08291530      -1.00320149      -0.52418261 
Ti       0.20687987       6.91965945       6.76921025       2.19568278      -2.67071071       1.65976811      47.86700000      -0.11656025       0.09288991      -0.80021451      -0.11656025       0.09288991      -0.80021451 
Ti       2.00984526       8.60371504       8.28237855      -1.25817249       4.00429737      -0.25948040      47.86700000      -0.22853162      -0.17725869       0.42277373      -0.22853162      -0.17725869       0.42277373 
Ti       4.07425178       0.63612648       0.50363593       6.15403343      -3.63048066       0.86704794      47.86700000      -0.44997506      -0.35996427      -1.32759056      -0.44997506      -0.35996427      -1.32759056 
Ti       5.11649830       2.45844840       2.35998897       3.47978514       5.72811459      -4.08040629      47.86700000       0.73699926      -0.17664357      -0.69594461       0.73699926      -0.17664357      -0.69594461 
Ti       3.55113531      -0.04206033       3.04621617       0.28598150      -1.85113601      -1.44895640      47.86700000      -0.17146515       0.29356989       0.24016740      -0.17146515       0.29356989       0.24016740 
Ti       4.16416336       1.49988455       4.64594308      -0.83239993      -1.57889422       3.10593273      47.86700000       0.72571796      -0.35880737       1.23673599       0.72571796      -0.35880737       1.23673599 
Ti       2.57919595      -0.89436359       5.89581114      -0.78633311      -0.83981596      -1.93185855      47.86700000      -0.75640453       0.40645634      -0.02829772      -0.75640453       0.40645634      -0.02829772 
Ti       4.73367539       1.51862921       8.05153292       1.42494359       0.38658116      -0.80799554      47.86700000       0.00199550      -0.34114640      -1.26434485       0.00199550      -0.34114640      -1.26434485 
Ti       2.99228926       3.22190174      -0.23286643       1.83608637       0.85274472       1.38604424      47.86700000       1.23146341      -0.03888079      -0.05066491       1.23146341      -0.03888079      -0.05066491 
Ti       4.56091417       5.02447052       1.71216813       1.36782600      -0.31240946      -3.38975845      47.86700000       1.33041199      -0.11530625      -0.45796050       1.33041199      -0.11530625      -0.45796050 
Ti       2.77274681       3.68497466       3.57104272      -1.83516647      -0.98530464       2.98028340      47.86700000       0.74864732       0.08586872       0.02287501       0.74864732       0.08586872       0.02287501 
Ti       5.33776350       4.61446170       4.62818624       2.98780087       0.20972727       0.06873644      47.86700000      -0.76246536      -0.35010911      -0.62548063      -0.76246536      -0.35010911      -0.62548063 
Ti       3.20282306       3.84208386       6.24932553      -3.13770908      -0.81503082      -2.51090067      47.86700000      -0.26554472      -1.56113367       0.56492475      -0.26554472      -1.56113367       0.56492475 
Ti       5.00490959       4.91338785       7.89237019       1.55836546       2.77091195      -2.16563986      47.86700000      -0.37335158      -0.90748630       0.57415176      -0.37335158      -0.90748630       0.57415176 
Ti       3.22028271       6.37215570      -0.35702665      -1.51756535       2.77391016      -1.19187743      47.86700000       0.45859282       0.00444314       0.17692808       0.45859282       0.00444314       0.17692808 
Ti       4.93903054       7.81570972       1.52467208      -0.74719294       5.55415560      -0.87670137      47.86700000       0.22589654      -0.43339093      -0.32599820       0.22589654      -0.43339093      -0.32599820 
Ti       3.28592291       6.82071580       3.57514460      -0.43965962      -4.70661493      -0.05702708      47.86700000      -0.45350245      -0.24936205       0.19921291      -0.45350245      -0.24936205       0.19921291 
Ti       4.71283621       8.26692545       4.72529685      -4.09523076      -2.03082466      -0.84860249      47.86700000       0.76329108      -1.78212871       0.04996434       0.76329108      -1.78212871       0.04996434 
Ti       3.01664382       6.44908236       6.42399613       1.08855210       2.67392380      -0.76192675      47.86700000       0.77941820       0.11310625       0.29674797       0.77941820       0.11310625       0.29674797 
Ti       4.61681002       8.35647346       7.79992297       1.47694784      -0.09163091      -3.04500662      47.86700000       0.84281911      -0.02932242       0.93323069       0.84281911      -0.02932242       0.93323069 
Ti       6.65231606      -0.24029900       0.08359214       0.89201912       3.16403620       3.71718485      47.86700000      -0.76335599       0.69014623      -0.52140701      -0.76335599       0.69014623      -0.52140701 
Ti       8.58833624       1.45027849       1.46992898      -1.07727938       1.53568632      -2.34493713      47.86700000      -0.69068566      -0.52373994       0.47244290      -0.69068566      -0.52373994       0.47244290 
Ti       6.51378164      -0.33936047       3.01474085       0.46532649      -1.40617050       1.04379176      47.86700000       0.83579532       1.51342243      -0.04823964       0.83579532       1.51342243      -0.04823964 
Ti       8.50662826       1.16024116       4.84508093      -1.17291935       3.57364979      -2.84373080      47.86700000      -0.69579145       0.09059975      -0.55449289      -0.69579145       0.09059975      -0.55449289 
Ti       6.11717495      -0.09384338       6.21589594       0.34070087       0.13411400      -3.46946616      47.86700000       1.39477179       0.79764225      -0.00106586       1.39477179       0.79764225      -0.00106586 
Ti       7.95637275       1.66871216       8.16508675      -1.05593496       3.97826251       6.99822685      47.86700000      -0.68696960       0.37088034      -0.27617089      -0.68696960       0.37088034      -0.27617089 
Ti       6.49150134       2.76672420      -0.25676996      -0.22714705       1.31963694       5.06463056      47.86700000       0.17738424       1.36655572       1.12829951       0.17738424       1.36655572       1.12829951 
Ti       8.49614661       4.81731538       1.36995854      -1.86968710      -1.09317167      -0.88198373      47.86700000      -0.91816107       0.39451901      -0.16689748      -0.91816107       0.39451901      -0.16689748 
Ti       6.97023225       3.21522398       3.57707859       2.96791332       0.16645772       2.63198712      47.86700000       0.00075123      -0.60803110      -1.31857912       0.00075123      -0.60803110      -1.31857912 
Ti       8.21173552       4.94413802       5.29601108      -3.68095502      -0.33616247       0.18435256      47.86700000       0.74797715       0.17951154      -1.26836663       0.74797715       0.17951154      -1.26836663 
Ti       6.40108594       3.16773876       6.12451546      -4.51362688       2.11700099       4.76083822      47.86700000      -0.63967650      -0.89841441       0.16171113      -0.63967650      -0.89841441       0.16171113 
Ti       7.95168005       4.90728128       7.73109389      -2.87382108       1.70781830      -1.66262262      47.86700000       1.49962793      -0.69267038       1.31631363       1.49962793      -0.69267038       1.31631363 
Ti       6.48883974       6.18707078      -0.38364684      -3.18187857      -3.86727692      -2.64651868      47.86700000      -0.70451090      -0.03168715       0.71519178      -0.70451090      -0.03168715       0.71519178 
Ti       8.17101317       7.74195435       1.09353681       0.65012859       0.66404816       1.06707121      47.86700000       0.60764667       0.18796087       1.00170724       0.60764667       0.18796087       1.00170724 
Ti       6.85545052       6.65557122       3.20533236       0.22295017      -3.50661402       0.03330647      47.86700000      -0.45800610      -0.90413246       0.00947454      -0.45800610      -0.90413246       0.00947454 
Ti       8.25861051       8.07033083       4.70361794       5.59451177      -0.09853349      -3.44825071      47.86700000      -0.31312324       0.09191771       0.78045917      -0.31312324       0.09191771       0.78045917 
Ti       6.26471457       6.24971538       6.38460715       1.12851885      -2.29848013       0.65465016      47.86700000      -0.23778386       1.65662040       0.18446760      -0.23778386       1.65662040       0.18446760 
Ti       9.60703869       9.81829289       9.77655232       0.90247625       3.83694835       3.63585176      47.86700000       0.87939981      -0.05692130       0.45556633       0.87939981      -0.05692130       0.45556633 
