54
Lattice="8.870728496683665 -2.8425469926068123e-15 1.1324443957325822e-38 -4.43536424834183 7.682276228202598 7.663162776850163e-25 5.474060799563254e-39 -1.4310661229599006e-24 28.692709727143452" Properties=species:S:1:pos:R:3:momenta:R:3:masses:R:1:force:R:3:forces:R:3 energy=-304.053124016 config_type=HMD_hcp_surf pbc="T T T"
Ti       0.46613863       0.21912345      -0.03973122       1.01559752      -2.53277481       1.62251153      47.86700000       0.18305939      -0.94482196      -0.09548382       0.18305939      -0.94482196      -0.09548382 
Ti      -0.04236750       1.65351271       2.69055140      -1.68267499       1.60498849       2.46374992      47.86700000      -0.25078205       0.80283235      -1.07166698      -0.25078205       0.80283235      -1.07166698 
Ti      -0.24076641      -0.03902826       4.86163125       1.11423453       0.22415468       1.08811611      47.86700000      -0.22311814      -0.60006147      -0.39386418      -0.22311814      -0.60006147      -0.39386418 
Ti      -0.11326818       1.84209240       7.10335964      -3.50390339      -0.85361701      -0.31095548      47.86700000       0.29025306      -0.20517820       0.43807987       0.29025306      -0.20517820       0.43807987 
Ti      -0.02318143       0.04333417       9.39572524       1.34160038       0.71004857       2.64461127      47.86700000       0.37823937       0.30871264      -0.33147677       0.37823937       0.30871264      -0.33147677 
Ti      -0.01131257       1.56099865      11.95152041       0.95844976      -3.27556582      -1.52000196      47.86700000       0.06082496       0.33587106      -0.96679348       0.06082496       0.33587106      -0.96679348 
Ti      -1.80845341       2.60120488       0.37170018       2.27083528      -0.75960727       1.49701528      47.86700000       0.00558000       0.11311783       0.69161596       0.00558000       0.11311783       0.69161596 
Ti      -1.10139573       4.32643194       2.62053515       0.89518907       3.22412555       0.39254763      47.86700000      -0.47870036      -0.29719214      -0.31598433      -0.47870036      -0.29719214      -0.31598433 
Ti      -1.64605683       2.47427875       5.10534510      -0.83427101      -3.27994344      -1.97934900      47.86700000      -0.29660365       0.93197760      -0.87536191      -0.29660365       0.93197760      -0.87536191 
Ti      -1.55665779       4.29115607       7.49732187       0.96617476      -1.52284067      -0.78549912      47.86700000       0.20022883       0.44352745      -0.27731772       0.20022883       0.44352745      -0.27731772 
Ti      -1.55743295       2.37558913       9.46723953       0.27399659      -0.53648125       0.83264384      47.86700000       0.60852760       0.11483768       1.42056618       0.60852760       0.11483768       1.42056618 
Ti      -1.69961475       4.28467640      11.52247449      -1.37210409      -0.62887896      -0.00212010      47.86700000      -0.02607953       0.07414443      -0.09672743      -0.02607953       0.07414443      -0.09672743 
Ti      -3.06920543       5.75218406       0.03756154      -1.39424215       3.55560939       1.82644144      47.86700000       0.97439573       0.85766187      -0.06172694       0.97439573       0.85766187      -0.06172694 
Ti      -2.88515781       6.88437582       2.44962405      -0.67842295       3.20054869      -3.24153081      47.86700000      -0.37208799      -0.19645341       0.40846539      -0.37208799      -0.19645341       0.40846539 
Ti      -3.08516485       5.07923854       5.06293685      -1.24423496       0.81129572      -1.59717971      47.86700000       0.95213235      -0.71308199      -1.01278233       0.95213235      -0.71308199      -1.01278233 
Ti      -3.03501106       6.89368769       6.93346249      -0.64458424       0.53603338      -2.60292936      47.86700000       0.16627240       0.28883337       1.06385590       0.16627240       0.28883337       1.06385590 
Ti      -3.45780069       5.16474158       9.41188959      -1.85049332      -1.12957096      -2.50835727      47.86700000       1.51137613       0.49685088       0.46225609       1.51137613       0.49685088       0.46225609 
Ti      -3.11773935       6.85852054      11.79155490       0.59167234      -0.69307014      -1.31602366      47.86700000      -0.13209464      -0.52410154       0.01440196      -0.13209464      -0.52410154       0.01440196 
Ti       2.99600044       0.19920724      -0.44656331      -2.26243979       0.89999162       1.63048385      47.86700000       0.60364668      -0.06085783       0.91274728       0.60364668      -0.06085783       0.91274728 
Ti       2.82875985       1.52648250       2.35497403      -1.57578290      -1.65618184      -1.10871989      47.86700000       0.83847294       0.42211084      -0.35984162       0.83847294       0.42211084      -0.35984162 
Ti       3.09279838      -0.17534198       4.82574539      -0.15464844       0.14335769       0.85551324      47.86700000      -0.61616902       0.31148769      -0.63856289      -0.61616902       0.31148769      -0.63856289 
Ti       3.04610752       1.60906115       7.12292131       0.70806041      -0.82938569       2.03948723      47.86700000      -0.73874690      -0.09713275       0.81640918      -0.73874690      -0.09713275       0.81640918 
Ti       2.95595668      -0.26055239       9.76287276      -0.41985754      -4.01767242       1.07243100      47.86700000      -0.20958791      -0.76794472      -1.34978642      -0.20958791      -0.76794472      -1.34978642 
Ti       3.43794022       1.10802930      11.96815271      -0.70393221       3.37232245      -1.23790531      47.86700000       1.00538589       0.13002193       1.15006716       1.00538589       0.13002193       1.15006716 
Ti       1.39122952       2.90561386       0.42324635       1.55047860       2.59448732       0.94466410      47.86700000       0.02190207      -0.81561866       0.06954609       0.02190207      -0.81561866       0.06954609 
Ti       1.84124567       4.33345319       2.50629790      -2.50361626       2.22392624      -2.46451419      47.86700000       0.15262626      -0.53244059       0.03618585       0.15262626      -0.53244059       0.03618585 
Ti       1.36643406       2.12128262       4.76520980       1.31908037       1.11730231      -2.20639161      47.86700000       0.61641333       1.19889666       0.25696942       0.61641333       1.19889666       0.25696942 
Ti       1.37903477       4.32137436       6.68935800       0.05937646       1.08544347       2.55815150      47.86700000       0.43436347      -0.73482685       1.17055043       0.43436347      -0.73482685       1.17055043 
Ti       1.58977748       2.37774832       9.53875208       0.23673662      -1.31224360       0.11701777      47.86700000      -0.51814612      -0.27619636       0.39094779      -0.51814612      -0.27619636       0.39094779 
Ti       1.80176791       3.93374968      11.99583976       3.89888879       2.90414475      -1.78911011      47.86700000       0.15935238       0.22427327      -0.74210370       0.15935238       0.22427327      -0.74210370 
Ti       0.64152254       5.35804281      -0.12471659       6.68488679       2.09553100       0.27381523      47.86700000      -0.31836590       1.25316805      -0.00856057      -0.31836590       1.25316805      -0.00856057 
Ti       0.00459748       6.63114571       2.23519644       1.70886105      -1.97135989       0.29657513      47.86700000       0.53879561       1.36856401      -0.00972532       0.53879561       1.36856401      -0.00972532 
Ti      -0.02937137       4.90910909       4.58628174       3.89538441       3.17484041       1.73295097      47.86700000      -0.88153186      -0.32415795      -0.19133406      -0.88153186      -0.32415795      -0.19133406 
Ti      -0.00139822       6.66588377       7.00017102      -1.01194189       1.44237341      -1.37690118      47.86700000      -0.39774757       0.10525549       1.04244848      -0.39774757       0.10525549       1.04244848 
Ti       0.30287628       5.12812252       9.80969491       1.31768680      -2.26010481      -0.90355010      47.86700000      -0.78757225      -0.36010389      -0.60463677      -0.78757225      -0.36010389      -0.60463677 
Ti       0.28145846       6.92812304      12.49870915      -1.33868785      -5.86187036      -0.70881091      47.86700000      -0.25830934       1.68793946      -1.40384750      -0.25830934       1.68793946      -1.40384750 
Ti       6.13752354      -0.08567045      -0.39387181       1.16693444      -1.52491054      -1.66217658      47.86700000      -0.15709857      -0.46843439       0.65754886      -0.15709857      -0.46843439       0.65754886 
Ti       5.78169561       1.58319048       2.70516163       3.30710088       0.25905735       2.75377934      47.86700000      -0.22493934       0.97192525      -1.17501917      -0.22493934       0.97192525      -1.17501917 
Ti       5.69147653       0.08430615       4.89590771      -1.68158147      -0.77026696      -2.29655693      47.86700000      -0.00218404      -0.27831752      -0.12267423      -0.00218404      -0.27831752      -0.12267423 
Ti       5.72094257       1.88915465       7.26183519       0.83865399      -0.83148020       3.80818129      47.86700000       0.05282056      -0.10392618      -0.27233130       0.05282056      -0.10392618      -0.27233130 
Ti       5.71128128       0.15541353       9.47439262      -0.90274196       2.72222559       0.56479570      47.86700000      -0.35547803      -0.58993597      -0.29580467      -0.35547803      -0.58993597      -0.29580467 
Ti       5.95388685       1.18556729      12.23863816      -1.15004650       3.35313802      -0.85541469      47.86700000      -1.29321655      -0.41074482       0.30508803      -1.29321655      -0.41074482       0.30508803 
Ti       4.23657978       2.83375077       0.03864194      -1.09300726       0.00565076       0.34270201      47.86700000       0.24885602      -0.86753653       0.51906322       0.24885602      -0.86753653       0.51906322 
Ti       4.71463674       4.40602263       2.28669998      -0.48969053      -0.63860125      -0.44340974      47.86700000       0.23596818      -0.51761883       0.63286875       0.23596818      -0.51761883       0.63286875 
Ti       4.09012312       2.64690724       4.75674435      -2.50753510       1.88377302      -0.01427666      47.86700000       0.27755278       0.44799908      -0.20782656       0.27755278       0.44799908      -0.20782656 
Ti       4.14935902       4.26607984       7.04764605       2.97086972       0.67962681       2.11832155      47.86700000       0.14992139      -0.19008826      -0.05423373       0.14992139      -0.19008826      -0.05423373 
Ti       4.56218436       2.66950750       9.92240689      -1.07382917       1.05404586       0.62955269      47.86700000      -0.03598015      -0.63054075      -0.54743980      -0.03598015      -0.63054075      -0.54743980 
Ti       4.60585452       4.23700322      12.20613606      -2.03652971       0.55084620      -0.82086593      47.86700000      -0.18381865       0.04282976      -0.11566352      -0.18381865       0.04282976      -0.11566352 
Ti       3.02621665       5.61310456       0.00837669      -3.25068846      -2.06544924      -0.05261217      47.86700000      -1.60939647      -0.08106451      -0.46819994      -1.60939647      -0.08106451      -0.46819994 
Ti       2.98980422       7.16199607       2.26823752      -1.12440949       1.65231074       0.99589926      47.86700000      -0.27625421      -0.79844826      -0.15212559      -0.27625421      -0.79844826      -0.15212559 
Ti       3.02673485       5.58811561       4.74808902      -0.56747020      -2.23413538       1.57245622      47.86700000       0.03796536      -0.80608446      -0.50597184       0.03796536      -0.80608446      -0.50597184 
Ti       2.78700653       6.91162426       7.05173862      -1.34979367      -0.29158060      -0.76181892      47.86700000       0.15994961       0.12550319       1.21082378       0.15994961       0.12550319       1.21082378 
Ti       2.92407560       4.71680632       9.37881476       0.14779675      -0.18637152       0.47665571      47.86700000      -0.85016156       0.56065654      -0.48791592      -0.85016156       0.56065654      -0.48791592 
Ti       2.78488517       6.62509665      11.15054317       1.16461516      -5.41723488      -2.58408941      47.86700000       0.62928843      -0.42608759       1.54228531       0.62928843      -0.42608759       1.54228531 
