54
Lattice="8.870728496683665 -2.8425469926068123e-15 1.1324443957325822e-38 -4.43536424834183 7.682276228202598 7.663162776850163e-25 5.474060799563254e-39 -1.4310661229599006e-24 28.692709727143452" Properties=species:S:1:pos:R:3:momenta:R:3:masses:R:1:force:R:3:forces:R:3 energy=-303.886210534 config_type=HMD_hcp_surf pbc="T T T"
Ti       0.22088273      -0.13413779      -0.31329532       2.03930288      -2.37766432      -3.84865132      47.86700000       0.08662027       0.76795260       0.14934035       0.08662027       0.76795260       0.14934035 
Ti      -0.16500267       1.78236577       2.73106179      -0.09773886      -0.02196185      -0.95935481      47.86700000       0.05202314       0.10465534      -1.77538915       0.05202314       0.10465534      -1.77538915 
Ti      -0.01485733      -0.00231517       4.74606586       2.82944203      -2.81872410      -3.13541186      47.86700000       0.19783953      -0.55594882       0.53023628       0.19783953      -0.55594882       0.53023628 
Ti       0.33251321       1.64079052       7.18704674       1.59263050      -2.68079850      -1.20804387      47.86700000      -1.13935592      -0.33960555       0.65863167      -1.13935592      -0.33960555       0.65863167 
Ti      -0.00229520      -0.03497226       9.58898371      -1.61527295       0.76282935      -0.31313431      47.86700000       0.26309471       0.34263001      -0.51111280       0.26309471       0.34263001      -0.51111280 
Ti      -0.10272350       1.50046268      12.20510932       0.09660569       1.49713941       0.49039331      47.86700000      -0.02109262       0.06602710      -0.14270026      -0.02109262       0.06602710      -0.14270026 
Ti      -1.48429338       2.67067971      -0.16943956       1.05657047       3.68448825      -1.51928742      47.86700000      -0.37657526      -0.91188756       0.88409449      -0.37657526      -0.91188756       0.88409449 
Ti      -1.52317812       4.41249001       2.40767966      -1.73932117      -0.27021982      -3.12169378      47.86700000      -0.13548967      -0.91186265       0.20090166      -0.13548967      -0.91186265       0.20090166 
Ti      -1.35728038       2.54607403       4.96281869       1.05391956       0.12946402       1.42185465      47.86700000      -0.09077109       0.26779266      -0.22598772      -0.09077109       0.26779266      -0.22598772 
Ti      -1.42288379       4.28483866       7.38542006      -0.89271328       0.40812450       2.64497466      47.86700000       0.21681404      -0.37856831       0.09646782       0.21681404      -0.37856831       0.09646782 
Ti      -1.42791625       2.38948566       9.49949420       1.83681859      -0.18332342       1.51851611      47.86700000       0.26711521       0.21820811       0.34313453       0.26711521       0.21820811       0.34313453 
Ti      -1.43533344       4.16395908      11.87367815      -0.55751445      -0.85425777       1.93185177      47.86700000      -0.28255791      -0.42887903      -0.35997743      -0.28255791      -0.42887903      -0.35997743 
Ti      -3.18049711       5.21450666       0.23847403      -1.53535649       0.15050133       0.00198443      47.86700000       0.77078703      -0.11344645      -0.23571489       0.77078703      -0.11344645      -0.23571489 
Ti      -2.86772991       6.91817374       2.46952964       1.84490802      -1.97733532       4.40665292      47.86700000      -0.23761551       0.76540022      -0.10431053      -0.23761551       0.76540022      -0.10431053 
Ti      -2.60938560       5.12482573       5.24783826       1.58494619       1.17893352      -0.69697086      47.86700000      -0.51407785       0.31414555      -1.59438928      -0.51407785       0.31414555      -1.59438928 
Ti      -2.64135371       6.75228401       7.20401499      -1.69538746      -0.67739124       1.65916998      47.86700000      -1.31997853       0.32768083      -0.54153411      -1.31997853       0.32768083      -0.54153411 
Ti      -2.83099822       5.14675379       9.60018712      -1.91817383       2.96957555      -1.23440744      47.86700000      -0.28830846      -0.36201418       0.96501796      -0.28830846      -0.36201418       0.96501796 
Ti      -3.46557749       6.83978803      12.01141932      -4.21656408       0.59861455       2.26540749      47.86700000      -0.22382202      -0.07538833       0.20393696      -0.22382202      -0.07538833       0.20393696 
Ti       2.65316373      -0.02291715      -0.32380171      -1.14466441      -0.45867005      -3.05542139      47.86700000      -0.67163882       0.12962618       0.31937403      -0.67163882       0.12962618       0.31937403 
Ti       2.98001757       1.86673979       2.54848026       0.39569693       3.21922975      -1.65211176      47.86700000      -0.51417542       0.10207004      -0.74249051      -0.51417542       0.10207004      -0.74249051 
Ti       3.10142999       0.08483811       4.54108910      -1.92072211      -2.09450960      -0.53567913      47.86700000       0.43920712      -0.13308421       1.15516564       0.43920712      -0.13308421       1.15516564 
Ti       3.06858185       1.77604631       7.07544576      -0.08188572       2.37359444      -2.03100807      47.86700000       0.36332184      -0.21572544       0.24068897       0.36332184      -0.21572544       0.24068897 
Ti       2.95510544      -0.09776454       9.42224749       0.28920324      -1.57771040       1.53530411      47.86700000      -0.33676708       0.73515199       0.20263828      -0.33676708       0.73515199       0.20263828 
Ti       2.77271223       1.78890056      11.75685077       1.27197400       0.05430332       1.73614511      47.86700000      -1.00880084       0.77379149       0.11159712      -1.00880084       0.77379149       0.11159712 
Ti       1.32192303       2.41744672       0.11316872       3.34721961       0.87842463      -0.37230938      47.86700000      -0.00502637       0.13230737       0.61757671      -0.00502637       0.13230737       0.61757671 
Ti       1.54628535       4.37495570       2.49860684       1.49029661      -0.47780554      -0.09539565      47.86700000      -0.13498822      -0.55251387      -0.23898649      -0.13498822      -0.55251387      -0.23898649 
Ti       1.41096317       2.40957926       4.93501640      -0.99641484      -2.74327789      -2.07587296      47.86700000       0.40097683       1.15170344      -0.55551350       0.40097683       1.15170344      -0.55551350 
Ti       1.20896210       4.36217924       7.07322262       1.79859710      -0.94155830      -1.26790841      47.86700000       1.31755730      -0.51587090      -0.57008224       1.31755730      -0.51587090      -0.57008224 
Ti       1.66268390       2.68290719       9.52936052      -1.63400822      -0.96147522       3.30316129      47.86700000      -0.64254682      -0.21994495      -0.22499940      -0.64254682      -0.21994495      -0.22499940 
Ti       1.53105112       3.76566432      11.91947081      -1.04459350       2.15525987       1.87867150      47.86700000       0.81327142      -0.55954511      -0.14875361       0.81327142      -0.55954511      -0.14875361 
Ti      -0.11948360       4.98586297      -0.10280810      -1.73853293      -1.79250830       1.61802729      47.86700000       0.13541804      -0.15876551       0.18467546       0.13541804      -0.15876551       0.18467546 
Ti      -0.08227333       6.87637417       1.89512889      -3.04909926       0.56278745      -1.34367807      47.86700000       0.43377055      -0.00983462      -0.19798565       0.43377055      -0.00983462      -0.19798565 
Ti       0.11324124       5.40986021       4.48175205      -0.61655638      -3.25199211      -0.34754801      47.86700000      -0.31124116      -0.48537124       0.88279639      -0.31124116      -0.48537124       0.88279639 
Ti       0.22294893       6.83381953       7.29536379      -0.33193559      -1.76615871       0.78568650      47.86700000      -0.87940043       0.00259662      -1.73764418      -0.87940043       0.00259662      -1.73764418 
Ti       0.18984237       5.19574347       9.66568764       3.25986781       5.53547524       2.00007152      47.86700000      -0.39091060      -0.73570111       0.35730164      -0.39091060      -0.73570111       0.35730164 
Ti      -0.43170468       6.79093944      11.78533432      -1.31938619       1.77022485       0.62756515      47.86700000       0.57282118      -0.08781188      -0.02828333       0.57282118      -0.08781188      -0.02828333 
Ti       5.96189123      -0.06362199      -0.45369650      -1.43516421      -1.96829209      -0.95585077      47.86700000       0.05928260       0.74592420       0.73011897       0.05928260       0.74592420       0.73011897 
Ti       5.58125911       1.60631761       2.56135648      -0.06901408      -0.21927692       3.78391584      47.86700000       1.34896769       1.15184707      -0.91922626       1.34896769       1.15184707      -0.91922626 
Ti       5.91026253      -0.28542600       4.48695795       0.43135057       1.91440564      -0.05248846      47.86700000      -0.23965351       0.72049924       1.51546786      -0.23965351       0.72049924       1.51546786 
Ti       5.96108222       1.65394028       7.07015068       0.43108663       1.95513683      -2.37200761      47.86700000       0.06466705      -0.20101349       0.17978956       0.06466705      -0.20101349       0.17978956 
Ti       5.63367631      -0.04900178       9.53294322      -1.91531462       1.18646328      -0.27388692      47.86700000       1.49491095       0.38829125       1.14604140       1.49491095       0.38829125       1.14604140 
Ti       5.92966842       1.70127946      11.96708385       2.42627233      -0.55507599      -1.18626264      47.86700000      -0.02202187       0.12940813      -0.48591459      -0.02202187       0.12940813      -0.48591459 
Ti       4.28199035       2.56522131       0.46523232       2.90698768       0.67795780       0.46856986      47.86700000       0.39566304      -0.23984844      -0.00170512       0.39566304      -0.23984844      -0.00170512 
Ti       4.48156778       4.80753228       2.72328774      -1.37581014       0.49194412      -0.73438267      47.86700000       0.45799870      -2.02261013      -0.12007271       0.45799870      -2.02261013      -0.12007271 
Ti       4.48770421       2.73745413       4.86127985       1.70852004      -0.80606494      -0.00706193      47.86700000       0.10310322      -0.22791346      -0.08209679       0.10310322      -0.22791346      -0.08209679 
Ti       4.50074643       4.22160340       7.28286876       0.51324346      -3.11901910       0.04004986      47.86700000       0.21093453       0.23156399      -0.11012333       0.21093453       0.23156399      -0.11012333 
Ti       4.53708225       2.54705222       9.51024295      -2.64273160      -1.95028386      -0.76574601      47.86700000       0.37457416       0.07403434       0.49295070       0.37457416       0.07403434       0.49295070 
Ti       4.35825031       4.19292548      11.95935317       0.37389494       3.67621921       2.08815834      47.86700000       0.23615659      -0.04215712      -0.44024446       0.23615659      -0.04215712      -0.44024446 
Ti       2.84673270       5.34228849       0.38757585      -0.45509151      -2.47141629       1.02988265      47.86700000      -0.39184972      -0.49721859      -0.21865786      -0.39184972      -0.49721859      -0.21865786 
Ti       2.88948230       6.75121845       2.33663952       1.81619269      -3.60980575       1.24373172      47.86700000      -0.11488998       1.10846958      -0.67204283      -0.11488998       1.10846958      -0.67204283 
Ti       3.23298672       5.15187734       4.92972924       3.97913932       1.47039378      -2.78099732      47.86700000      -1.00151748      -0.21216490       0.31702713      -1.00151748      -0.21216490       0.31702713 
Ti       2.97546303       6.89528841       7.26024867       2.32432171       1.18517306       0.87242973      47.86700000       0.67113099       0.53390408      -0.88654072       0.67113099       0.53390408      -0.88654072 
Ti       3.14209968       5.12080340       9.09670299      -5.66710522       0.50567452      -1.20774990      47.86700000      -0.40937489       0.04857402       1.67895316      -0.40937489       0.04857402       1.67895316 
Ti       2.99707065       6.76064897      11.82932485      -0.99293548       1.63423909      -0.20185307      47.86700000      -0.04357968      -0.13955958      -0.29144503      -0.04357968      -0.13955958      -0.29144503 
