54
Lattice="9.787706024992827 1.5111959773950004e-32 4.0392805617045097e-38 -1.5111959773950004e-32 9.787706024992827 7.646795577667676e-39 -3.09513434195661e-38 -3.558886819685004e-38 9.787706024992827" Properties=species:S:1:pos:R:3:momenta:R:3:masses:R:1:force:R:3:forces:R:3 energy=-298.69008165 config_type=HMD_bcc pbc="T T T"
Ti       1.23367094      -1.20115075      -0.13132779       1.79510289      -2.75225119       2.81966435      47.86700000      -0.33774654       0.51444004      -0.83507980      -0.33774654       0.51444004      -0.83507980 
Ti       2.00222415       1.47449037       1.58411724       0.55343352      -2.75060434       1.46689204      47.86700000      -0.81339086       0.02026435      -0.27231591      -0.81339086       0.02026435      -0.27231591 
Ti       0.68656993       0.52064359       4.16655160      10.03168660       1.88303418      -0.31943531      47.86700000      -1.09415319      -1.03945719      -0.91329005      -1.09415319      -1.03945719      -0.91329005 
Ti       2.02299480       2.16512100       5.27043100       2.99870620       1.33877150      -3.41266332      47.86700000      -1.71878830       2.17698301      -0.05684833      -1.71878830       2.17698301      -0.05684833 
Ti       0.02415957       0.11668705       6.73595590      -1.18321843       7.06494767       2.94292543      47.86700000      -0.07182433      -0.21517336      -0.43218693      -0.07182433      -0.21517336      -0.43218693 
Ti       1.51056900       1.49845916       8.33093328       0.13122572       0.60780021      -5.49077072      47.86700000       0.46656625      -0.59771547       0.42996598       0.46656625      -0.59771547       0.42996598 
Ti       0.05650951       2.93974583       0.08295798      -5.75947912      -1.52072042       0.44527420      47.86700000      -0.19067182       1.32473780       0.88375628      -0.19067182       1.32473780       0.88375628 
Ti       1.57224987       5.20370309       2.57478810      -1.58535031       1.96318567      -0.42696827      47.86700000      -1.18188371       1.01381110       1.10329640      -1.18188371       1.01381110       1.10329640 
Ti      -0.05406438       3.19659103       2.75891722       0.61225538      -1.21920599      -2.05675947      47.86700000       0.03123059      -0.49778554       0.79326896       0.03123059      -0.49778554       0.79326896 
Ti       1.25340502       5.11810275       6.03173615       2.73064061       1.62377364      12.17078446      47.86700000       0.58187501      -0.10437121      -2.55007298       0.58187501      -0.10437121      -2.55007298 
Ti      -0.50628159       3.64353419       7.29292800      -0.18177475      -5.93981283       4.99792521      47.86700000       0.96608199      -0.49320982       0.11218928       0.96608199      -0.49320982       0.11218928 
Ti       0.28011129       6.47464666       7.58783363       1.35711396       1.04795045      -0.18650018      47.86700000      -0.74028239       0.84123535       0.20131637      -0.74028239       0.84123535       0.20131637 
Ti       0.83309080       5.59408090      -0.13460835      -3.06753025       5.96720773      -1.77760619      47.86700000       0.73144844       0.24838999       0.66441121       0.73144844       0.24838999       0.66441121 
Ti       0.90363627       8.11495727       2.53479598       7.10661867       2.85859129       1.73563486      47.86700000       8.13964530       3.41482228      -2.49925399       8.13964530       3.41482228      -2.49925399 
Ti      -1.01622970       7.25059504       2.93216142      -7.10501570       0.52859444      -1.83959022      47.86700000      -9.38711470      -4.49794254       1.41325610      -9.38711470      -4.49794254       1.41325610 
Ti       2.44565651       7.57668210       4.65900266      -0.51424144       0.05407061       4.50212555      47.86700000      -1.03822752      -0.62451058      -0.78811706      -1.03822752      -0.62451058      -0.78811706 
Ti      -0.69245923       7.75576996       5.28334866       6.48013409       0.60934347       4.57437847      47.86700000       1.90955664      -0.15820550      -0.70305736       1.90955664      -0.15820550      -0.70305736 
Ti       2.71300001       7.83293333       7.22941702       0.75008943      -1.05796241      -6.00791653      47.86700000      -2.87871712       2.63090945      -3.18324361      -2.87871712       2.63090945      -3.18324361 
Ti       4.10397526       0.97989213      -0.66401857       3.09023352       1.22261945      -2.20388130      47.86700000      -0.34829985       0.17299513      -4.39671601      -0.34829985       0.17299513      -4.39671601 
Ti       4.44112447       1.52691358       1.43956249      -2.14957898       0.41515325      -3.02978393      47.86700000       1.29921266       0.50001172       5.37589347       1.29921266       0.50001172       5.37589347 
Ti       2.97764287      -0.31800367       3.24215218      -3.99210330      -4.81082224       1.78031820      47.86700000       0.86393351      -0.27173648      -0.40360296       0.86393351      -0.27173648      -0.40360296 
Ti       4.18791553       1.78311359       4.35865226      -4.79753151       4.69339148      -8.64845323      47.86700000       2.41425737      -4.12171789      -0.70511746       2.41425737      -4.12171789      -0.70511746 
Ti       2.70247975       0.22245748       6.23965800      -0.22706395      -4.37891061       5.33487115      47.86700000       0.70690994      -0.77212046      -0.39604391       0.70690994      -0.77212046      -0.39604391 
Ti       4.52190507       1.86674381       6.74655546      -9.18010726       3.68653638      -6.05673930      47.86700000      -0.14746803       1.84557097      -0.00263412      -0.14746803       1.84557097      -0.00263412 
Ti       3.07722085       4.07553859       1.00975933       0.07768431       3.66275745      -0.58545409      47.86700000      -0.65288069      -0.70459046      -0.79004519      -0.65288069      -0.70459046      -0.79004519 
Ti       5.21075136       3.90782474       2.02223416      -1.92208804       0.08625121       6.63260617      47.86700000       1.14992129       1.12759095       0.13818372       1.14992129       1.12759095       0.13818372 
Ti       3.62538469       3.91436013       4.06106464      -1.90166676      -0.64976593      -6.60896059      47.86700000      -2.01858440       3.00217726      -0.74711826      -2.01858440       3.00217726      -0.74711826 
Ti       5.99150927       3.78625009       5.35389331       0.15523008      -1.49607916       2.07270760      47.86700000       1.19568321      -0.18351282      -0.91736915       1.19568321      -0.18351282      -0.91736915 
Ti       2.29867850       3.70138765       7.85402551       1.49198008      -2.55915717       4.94477713      47.86700000       0.95116921       0.25129466       0.27111131       0.95116921       0.25129466       0.27111131 
Ti       4.48030587       4.16607952       8.50382889       4.69599609       0.72203977       3.82674505      47.86700000      -0.06477857      -0.76252069       0.20771774      -0.06477857      -0.76252069       0.20771774 
Ti       3.57767075       6.53877902      -1.03520049      -3.71665464       0.60412525      -5.11230836      47.86700000      -6.61832767      -3.21595093      -2.11798160      -6.61832767      -3.21595093      -2.11798160 
Ti       3.60623104       8.50643625       0.51169539       6.69226273       1.26107618       2.82156346      47.86700000       1.11258349       2.14135141      -0.31037352       1.11258349       2.14135141      -0.31037352 
Ti       3.61993514       6.78044667       1.97812200      -3.48545779      -3.88677947      -1.04099612      47.86700000      -0.36221987      -1.75876215       1.99395153      -0.36221987      -1.75876215       1.99395153 
Ti       4.96146555       8.51026058       5.10908469       2.89086864      -6.09740711       4.41175997      47.86700000      -0.58449337       0.50877495      -0.63140291      -0.58449337       0.50877495      -0.63140291 
Ti       3.85711079       5.64149466       5.72705711      -4.90230124      -4.82846452       3.06455413      47.86700000       0.46611580       0.05551023       2.36810421       0.46611580       0.05551023       2.36810421 
Ti       5.06414148       8.94283600       7.55801424       0.46710640       2.40820813       2.77176492      47.86700000       0.37071486      -0.13894435       0.99567494       0.37071486      -0.13894435       0.99567494 
Ti       6.93826244      -0.67084152      -0.08311216      -3.81098085      -2.65308822       4.11628888      47.86700000      -2.18780936       0.19291089       0.16892870      -2.18780936       0.19291089       0.16892870 
Ti       8.73584485       0.60382846       1.57871264       3.74529428      -5.85106826      -0.86185432      47.86700000       0.35427746      -0.74634442       1.56211351       0.35427746      -0.74634442       1.56211351 
Ti       5.70021400      -1.15912926       2.24840698       3.47160225      -3.22490480       3.86827819      47.86700000       0.95630779      -0.19652414       0.73044187       0.95630779      -0.19652414       0.73044187 
Ti       8.93933953       2.43872444       4.94395005       5.35919102       3.63536219      -6.06128972      47.86700000      -0.84167497       0.62744438       0.74152362      -0.84167497       0.62744438       0.74152362 
Ti       7.01911869       1.42407459       7.11456087       1.62761247       3.75243421      -2.07933063      47.86700000       0.15126009      -1.52549802      -1.06836224       0.15126009      -1.52549802      -1.06836224 
Ti       8.90725138       0.82316687       8.95458791       0.27786581       2.99478578      -2.56697905      47.86700000      -0.32144320      -0.31669326      -0.36880532      -0.32144320      -0.31669326      -0.36880532 
Ti       6.80302269       2.48399524       0.33624613       2.35238804       4.81991913       3.23438053      47.86700000       0.32337631      -1.00253210       0.45994746       0.32337631      -1.00253210       0.45994746 
Ti       7.53729385       4.64920359       1.81666145      -0.74798403      -4.64441234       0.52861360      47.86700000       0.39771067       0.95774927       1.13310513       0.39771067       0.95774927       1.13310513 
Ti       7.42998060       1.56420151       3.28677103       0.04815021       0.21211473       6.75569161      47.86700000      -1.38597052       1.41281349      -1.26363933      -1.38597052       1.41281349      -1.26363933 
Ti       8.58018101       5.38361078       5.06654963      -2.98768917       1.48753628       1.06086162      47.86700000      -0.87817272      -0.89586400      -0.20625128      -0.87817272      -0.89586400      -0.20625128 
Ti       6.78684143       3.70437114       7.89226169       5.07096499       2.48423803      -1.41321188      47.86700000       0.21681710       0.77462026      -0.38104671       0.21681710       0.77462026      -0.38104671 
Ti       8.24857168       5.24607254       8.98477957      -5.98137307      -3.33908092      -3.01711471      47.86700000      -1.11904701       0.26228697       0.01258752      -1.11904701       0.26228697       0.01258752 
Ti       5.37043801       6.35230221       0.09094299      -1.42641510      -4.06557594       1.23791250      47.86700000       9.68662569      -0.77222960       5.18439249       9.68662569      -0.77222960       5.18439249 
Ti       8.69660723       7.56495582       0.25686322      -2.68917156       1.20049957     -10.61312318      47.86700000      -0.44627706       0.64935762       0.58023977      -0.44627706       0.64935762       0.58023977 
Ti       5.77826819       6.03293638       4.15224924      -1.90495287       2.65629946       3.31201973      47.86700000       0.99059624       0.56607336      -2.07716959       0.99059624       0.56607336      -2.07716959 
Ti       7.19408457       9.13223283       4.53413940      -8.05174931       3.91666436      -3.07484829      47.86700000       0.72153327      -0.17946526       0.96172886       0.72153327      -0.17946526       0.96172886 
Ti       6.28409233       6.65790172       6.78916875       5.61647268      -2.62867151      -0.66335179      47.86700000      -3.57659500      -5.78178243      -1.31682244      -3.57659500      -5.78178243      -1.31682244 
Ti       7.70007644       8.18620370       7.45522512       1.59334194      -1.11592627     -12.27721620      47.86700000       3.85143266       4.34103379       1.84686160       3.85143266       4.34103379       1.84686160 
