54
Lattice="9.787706024992827 1.5111959773950004e-32 4.0392805617045097e-38 -1.5111959773950004e-32 9.787706024992827 7.646795577667676e-39 -3.09513434195661e-38 -3.558886819685004e-38 9.787706024992827" Properties=species:S:1:pos:R:3:momenta:R:3:masses:R:1:force:R:3:forces:R:3 energy=-315.367061363 config_type=HMD_bcc pbc="T T T"
Ti       0.01122507      -0.32101484      -0.52415678       0.24224029      -8.77731596     -14.16505041      47.86700000       0.84668620       0.58290903       1.49013427       0.84668620       0.58290903       1.49013427 
Ti       1.50943721       1.40178027       1.86919226      -3.18717826      -6.10882953       5.99302653      47.86700000       0.58979056       0.45779420      -1.43676128       0.58979056       0.45779420      -1.43676128 
Ti       0.07427272      -0.16133982       3.51339423       1.67044527      -4.54296567       6.23729721      47.86700000      -0.35985383       0.30766266      -0.44518157      -0.35985383       0.30766266      -0.44518157 
Ti       1.48384055       1.76775995       4.71622910      -3.37418775       4.02114439      -5.02423477      47.86700000       0.25285755       0.11380309       0.58027006       0.25285755       0.11380309       0.58027006 
Ti      -0.14836381      -0.08446348       6.53741406      -3.68403096      -1.88067819       0.11165733      47.86700000       0.72124868       1.06572934      -0.32663154       0.72124868       1.06572934      -0.32663154 
Ti       1.38742513       1.69306732       8.20619998      -5.74103365       1.50510290       1.64615086      47.86700000       1.10831363      -0.05140883       0.29713853       1.10831363      -0.05140883       0.29713853 
Ti       0.16318870       3.41462765       0.29156323       3.92873864       2.94090655       7.58683260      47.86700000      -0.74621055      -0.56782712      -0.61080143      -0.74621055      -0.56782712      -0.61080143 
Ti       1.76788837       4.77319783       1.83958529       3.90589220      -2.94417683       6.00325597      47.86700000      -0.30632814       0.99726945      -0.52627002      -0.30632814       0.99726945      -0.52627002 
Ti       0.11204724       3.27470510       3.05127650       2.62837336       0.26357715      -5.21513167      47.86700000      -1.14471418       0.58740549       0.96415416      -1.14471418       0.58740549       0.96415416 
Ti       1.69590388       4.83269111       5.04805642       1.54488263      -1.31279145       4.19247506      47.86700000      -0.87897370       0.40304558      -0.23538403      -0.87897370       0.40304558      -0.23538403 
Ti      -0.04337673       3.07573271       6.64640140      -1.39303951      -3.96300590       2.88057270      47.86700000      -0.28711894      -0.13942154      -0.76404628      -0.28711894      -0.13942154      -0.76404628 
Ti       1.54697202       4.88513636       8.03531016      -1.74637785      -0.18086166      -3.20482884      47.86700000       0.10996159      -0.29073649      -0.48778039       0.10996159      -0.29073649      -0.48778039 
Ti      -0.08824914       6.23107705      -0.13619873      -2.43607868      -7.58633223      -3.64342015      47.86700000       0.60820348       0.95168927       0.13899556       0.60820348       0.95168927       0.13899556 
Ti       1.50026965       8.23786855       1.64175455      -3.71001314       1.59096009       0.02247500      47.86700000       0.46170430      -0.96081034      -0.36562368       0.46170430      -0.96081034      -0.36562368 
Ti      -0.07237656       6.45984041       3.39995402      -1.72837187      -1.34876895       3.95636263      47.86700000       0.29878957       0.04566096      -0.02391881       0.29878957       0.04566096      -0.02391881 
Ti       1.61602744       8.16197868       4.89755559      -0.17959948      -0.56343650       0.01335541      47.86700000       0.19995492      -0.82140801       0.39343643       0.19995492      -0.82140801       0.39343643 
Ti      -0.12095416       6.82778158       6.68112970      -2.72036444       7.84740036       3.95882172      47.86700000       0.58579551      -0.51574406      -1.05392991       0.58579551      -0.51574406      -1.05392991 
Ti       1.75729219       8.37736292       8.14446292       3.24227989       5.75405817      -0.29309634      47.86700000       0.48960570      -0.07031818      -0.21627958       0.48960570      -0.07031818      -0.21627958 
Ti       3.12845364      -0.12159775      -0.17818598      -4.59288352      -2.65685792      -5.24506458      47.86700000       0.13202188       0.70718120       0.85212088       0.13202188       0.70718120       0.85212088 
Ti       5.19987711       1.45688545       1.60101618       8.92164245      -3.79287262      -0.82779819      47.86700000      -1.33682057       0.56377678      -0.13272499      -1.33682057       0.56377678      -0.13272499 
Ti       3.12451915      -0.16541690       3.40395206      -3.63540441      -4.22074974       4.27569159      47.86700000       0.48021894       1.09795872       0.10226561       0.48021894       1.09795872       0.10226561 
Ti       4.94840458       1.86477534       5.13227489       2.08865523       6.21343496       5.58731339      47.86700000       0.59317214      -0.63630207      -1.04845063       0.59317214      -0.63630207      -1.04845063 
Ti       3.10650272       0.41091875       6.24507199      -4.02353693      10.56025882      -7.02970392      47.86700000       0.70327739      -0.91037351       1.04787844       0.70327739      -0.91037351       1.04787844 
Ti       4.93408166       1.65894825       8.18161953       0.84462050       0.62118382       0.57727452      47.86700000       0.30355822       0.06421527       0.34096122       0.30355822       0.06421527       0.34096122 
Ti       3.29268980       3.57530875      -0.06724806       0.23226301       8.29927455      -1.60548954      47.86700000      -0.24650291      -2.03649673       0.26879414      -0.24650291      -2.03649673       0.26879414 
Ti       4.77548707       5.05434343       1.41434424      -2.27714677       3.99884823      -5.89075620      47.86700000       0.80272688      -0.01632346       0.21251180       0.80272688      -0.01632346       0.21251180 
Ti       3.21931347       3.37847031       3.28603250      -1.37264950       2.93995481       1.09959165      47.86700000       1.14106065      -1.13329894       0.06509205       1.14106065      -1.13329894       0.06509205 
Ti       4.47716864       4.76937067       4.77190219     -11.83639368      -2.72611764      -3.45878095      47.86700000       1.76905423       0.13761147       0.38300891       1.76905423       0.13761147       0.38300891 
Ti       3.52861011       3.23028555       6.68056990       6.48595535      -0.94403545       4.06405807      47.86700000      -1.68171867      -0.40510093      -0.42429965      -1.68171867      -0.40510093      -0.42429965 
Ti       4.72177188       4.93265675       8.17587527      -3.87285566       1.15906705       0.42682399      47.86700000       1.37217407       0.50275890       0.31744680       1.37217407       0.50275890       0.31744680 
Ti       3.09184195       6.23783518      -0.39219707      -4.42423707      -7.91670637     -10.79112862      47.86700000       0.04757384       1.05913080       1.39606473       0.04757384       1.05913080       1.39606473 
Ti       4.70068108       7.99670541       2.05505554      -4.81461900      -5.46763765      11.14973473      47.86700000       0.01970031       0.16914475      -2.48095713       0.01970031       0.16914475      -2.48095713 
Ti       3.36017623       6.53060177       3.17231593       2.31611879       0.30677322      -2.16237944      47.86700000      -0.68311841       0.29295788       0.87437538      -0.68311841       0.29295788       0.87437538 
Ti       4.97342446       8.13285145       5.18896037       1.79045571      -0.48657690       8.00752243      47.86700000      -0.53406011       0.62156065      -1.28013310      -0.53406011       0.62156065      -1.28013310 
Ti       3.29595635       6.56718500       6.52666557       0.58173309       1.32986596       0.23708648      47.86700000      -0.16972278       0.03723361      -0.07030935      -0.16972278       0.03723361      -0.07030935 
Ti       4.76386237       8.25257225       8.16259643      -3.31704057       2.32524918       0.11161172      47.86700000      -0.14395125      -0.35012372      -0.39728585      -0.14395125      -0.35012372      -0.39728585 
Ti       6.45202390       0.07116493       0.03839063      -1.88888867       1.87564924       1.35057791      47.86700000      -0.22147675      -0.91766777       0.37576962      -0.22147675      -0.91766777       0.37576962 
Ti       8.38076973       1.37838587       1.68652235       6.55641051      -6.01233271       1.24038623      47.86700000      -0.32660260       0.41472975      -0.54377869      -0.32660260       0.41472975      -0.54377869 
Ti       6.65938724      -0.31712692       2.81010409       2.96924660      -8.16652342     -11.39738654      47.86700000      -0.11464670       0.72962028       1.55787748      -0.11464670       0.72962028       1.55787748 
Ti       7.98985610       1.63792031       5.16533391      -4.56964381       0.30499138       6.86348413      47.86700000       0.35806853      -0.53868367      -1.67019610       0.35806853      -0.53868367      -1.67019610 
Ti       6.47161264      -0.10339667       6.55391688      -2.12302133      -1.87263415       0.47814314      47.86700000      -0.29289696       0.73639940       0.19312345      -0.29289696       0.73639940       0.19312345 
Ti       8.18088740       1.50761502       8.38362518       0.36026779      -2.29723197       6.51883422      47.86700000      -0.08878038       0.93411567      -0.13045579      -0.08878038       0.93411567      -0.13045579 
Ti       6.66071706       3.48254395       0.19202638       3.82126565       5.60876979       5.57592583      47.86700000       0.51469956      -0.48530442      -0.31001298       0.51469956      -0.48530442      -0.31001298 
Ti       8.16410247       5.43584399       1.72937491       0.55722691      13.63303632       2.28632538      47.86700000       0.01331143      -2.04474528       0.07228200       0.01331143      -2.04474528       0.07228200 
Ti       6.48572394       3.06011799       3.12830531      -0.90482423      -5.80056011      -3.59774976      47.86700000       0.24657797       1.06725849       0.08948630       0.24657797       1.06725849       0.08948630 
Ti       8.06230014       4.80369540       4.99502253      -2.55342515      -2.40112439       2.60919494      47.86700000       0.49649704      -0.03761256      -0.68656234       0.49649704      -0.03761256      -0.68656234 
Ti       6.98703673       3.39928201       6.69734034      13.26466396       3.27659303       4.18554400      47.86700000      -4.94491171      -2.92795054      -2.15392001      -4.94491171      -2.92795054      -2.15392001 
Ti       8.36766491       4.73872689       7.75425190       5.04593792      -4.31260376     -10.58648966      47.86700000       2.91678413       3.17034609       3.70370836       2.91678413       3.17034609       3.70370836 
Ti       6.75130541       6.57979251      -0.12085959       5.44177916       1.43916509      -3.55152961      47.86700000      -1.05815003      -0.06087327       0.11973562      -1.05815003      -0.06087327       0.11973562 
Ti       8.49324159       8.10756603       1.31467226       8.37733901      -1.50553798      -7.34100736      47.86700000      -0.57171801       0.18589773       1.06151352      -0.57171801       0.18589773       1.06151352 
Ti       6.46285370       6.52342156       3.33006661      -1.64858118       0.11734540       1.92152030      47.86700000      -0.11693433      -0.11406928       0.45117505      -0.11693433      -0.11406928       0.45117505 
Ti       8.12639107       8.41816637       4.79316202      -0.60704063       6.26784300      -2.89761543      47.86700000      -0.62927370      -0.91924323       0.30969720      -0.62927370      -0.91924323       0.30969720 
Ti       6.66236450       6.62682735       6.56407741       3.49308972       2.87958922       0.99345899      47.86700000      -0.74866710      -0.68037510      -0.40227256      -0.74866710      -0.68037510      -0.40227256 
Ti       8.06985497       8.26234997       7.98830706      -1.94905591       2.70922297      -4.23374464      47.86700000      -0.55023659      -0.37264744       0.56495011      -0.55023659      -0.37264744       0.56495011 
