53
Lattice="8.870728496683665 -2.8425469926068123e-15 1.1324443957325822e-38 -4.43536424834183 7.682276228202598 7.663162776850163e-25 5.474060799563254e-39 -1.4310661229599006e-24 14.346354863571726" Properties=species:S:1:pos:R:3:momenta:R:3:masses:R:1:force:R:3:forces:R:3 energy=-312.260062385 config_type=HMD_hcp_vac pbc="T T T"
Ti      -0.15629550       1.58117540       2.35112239      -2.53713090      -0.83669911      -1.08464604      47.86700000      -0.07942924       0.60532206       0.07177330      -0.07942924       0.60532206       0.07177330 
Ti       0.18772331       0.06533696       4.84915254      -0.75556709       0.32960651      -1.04154794      47.86700000      -0.50594554       0.05683447      -1.22475561      -0.50594554       0.05683447      -1.22475561 
Ti       0.01456830       2.07063006       7.05536142      -1.31655155       1.61987026      -0.05670846      47.86700000      -0.99856833       0.04014883       0.74572132      -0.99856833       0.04014883       0.74572132 
Ti      -0.11802419       0.25729110       9.40014853       3.17061475       2.27884466       0.39693030      47.86700000      -1.07771816      -0.55075870       0.07168378      -1.07771816      -0.55075870       0.07168378 
Ti      -0.03609649       1.58125836      12.16409754       0.57757224      -0.95022205      -0.23913043      47.86700000      -0.43972074      -0.19635241      -0.06439700      -0.43972074      -0.19635241      -0.06439700 
Ti      -1.60907703       2.47999469      -0.00015596       0.90951783      -0.19702428      -1.46151342      47.86700000       0.68253466      -0.10873918       0.22654048       0.68253466      -0.10873918       0.22654048 
Ti      -1.58675962       4.17603619       2.31848481       0.64318881       0.07366183       0.05358491      47.86700000       0.06265785      -0.00661164       0.69249002       0.06265785      -0.00661164       0.69249002 
Ti      -1.59106090       2.53799794       4.72917893       0.76463190       1.08211082       2.58053852      47.86700000       0.55246433       0.45033705       0.00094596       0.55246433       0.45033705       0.00094596 
Ti      -1.67994885       4.44134054       7.30118688       5.35243377       1.80547714      -4.15294452      47.86700000       0.93017549       0.06708838       0.15700937       0.93017549       0.06708838       0.15700937 
Ti      -1.61287871       2.72153948       9.73445007       2.70435927      -1.77118352      -0.15288614      47.86700000       0.51282157      -0.44114073       0.03694363       0.51282157      -0.44114073       0.03694363 
Ti      -1.15950677       4.20447056      12.21288532       0.60487735       1.91417667      -0.50889816      47.86700000      -1.05750466      -0.09934279      -0.83801332      -1.05750466      -0.09934279      -0.83801332 
Ti      -2.72087604       5.19213162      -0.21146061      -1.59982439       2.05312020       3.94327989      47.86700000      -1.01883041       0.29149626       0.76654213      -1.01883041       0.29149626       0.76654213 
Ti      -2.94825159       6.90018777       2.25991244      -0.41455805       0.17286154       1.41979631      47.86700000      -0.35132779      -0.76410209       0.36491694      -0.35132779      -0.76410209       0.36491694 
Ti      -2.87561181       5.30609006       5.09780639       1.45468130       1.77940415      -1.69788832      47.86700000       0.06398689       0.20378975      -1.57174740       0.06398689       0.20378975      -1.57174740 
Ti      -3.11937175       7.34111786       7.22586603       2.09083076       1.86938198      -3.11030692      47.86700000       0.49404558      -1.63910724       0.13934889       0.49404558      -1.63910724       0.13934889 
Ti      -2.84949393       5.00749094       9.74310189      -0.68885196      -3.96834143      -2.39513714      47.86700000      -0.72536904       0.77291596      -0.48466266      -0.72536904       0.77291596      -0.48466266 
Ti      -3.26169650       6.97589902      11.53990687       0.88101065      -0.83230359      -0.13152032      47.86700000       1.40421006      -0.76092817       1.38797630       1.40421006      -0.76092817       1.38797630 
Ti       3.10687296      -0.13083222      -0.00677701       2.00089888      -0.76258613      -1.38374296      47.86700000       0.40694673       0.72250720       0.00839625       0.40694673       0.72250720       0.00839625 
Ti       2.69106726       1.64674166       2.41400480       0.72766446      -1.58443447       2.16784891      47.86700000       1.19309969      -0.17487135       0.38490388       1.19309969      -0.17487135       0.38490388 
Ti       3.08028573       0.06707363       4.82309393      -0.61462130       1.59408310       1.15771508      47.86700000      -0.28532580      -0.36464397      -0.15275753      -0.28532580      -0.36464397      -0.15275753 
Ti       2.92680763       1.77812920       7.02035129      -3.98499228       0.54618930       4.12328812      47.86700000       0.80687904       0.16678918       0.32825542       0.80687904       0.16678918       0.32825542 
Ti       2.99943528       0.22300651       9.60024564      -3.04531471       1.84360213      -1.63188885      47.86700000      -0.00219325      -0.54206190      -0.28407769      -0.00219325      -0.54206190      -0.28407769 
Ti       2.85789703       1.62370859      12.00900692      -1.87731023      -1.23268126      -4.40623016      47.86700000       0.37174507       0.36315896       0.08765503       0.37174507       0.36315896       0.08765503 
Ti       1.64607939       2.35941464       0.23595367       1.79499202      -1.84165027       0.29419316      47.86700000      -0.68549938      -0.54534219      -0.66743294      -0.68549938      -0.54534219      -0.66743294 
Ti       1.62894561       4.12538895       2.52637982       0.43101358       0.00088082       2.20943035      47.86700000      -1.26832516       0.53172862      -0.23449308      -1.26832516       0.53172862      -0.23449308 
Ti       1.36708817       2.66638950       4.88145072       2.38614424      -1.61540341      -3.32385813      47.86700000       0.32202281      -0.04593851      -0.44941553       0.32202281      -0.04593851      -0.44941553 
Ti       1.81046324       4.29939036       7.41290992      -0.41462199      -1.46790951       0.69940589      47.86700000      -1.78959640       0.60485243      -0.67519360      -1.78959640       0.60485243      -0.67519360 
Ti       1.21837432       2.47145981       9.62939042      -2.58566625       0.84899416       0.07156013      47.86700000       0.55156676       0.53432430       0.42466405       0.55156676       0.53432430       0.42466405 
Ti       1.51739720       4.13193947      12.21960322      -1.25125586       0.37377798       0.80774099      47.86700000       0.13119145       0.05186784      -1.21441336       0.13119145       0.05186784      -1.21441336 
Ti       0.23291573       4.93868581       0.22876353       0.16511881      -2.64926378       1.99046940      47.86700000       0.03296904      -0.23222187      -0.37894732       0.03296904      -0.23222187      -0.37894732 
Ti      -0.03026671       6.63230662       2.34575126      -2.34507190      -0.41632465       0.44334047      47.86700000       0.02147235       0.18301095       0.45204880       0.02147235       0.18301095       0.45204880 
Ti      -0.01590141       5.16382224       5.02009396       2.76466976       1.86111752       1.04246492      47.86700000       0.13745949      -0.06466180      -0.20756837       0.13745949      -0.06466180      -0.20756837 
Ti      -0.05134668       6.92054512       7.46338038       0.07633818       3.68157132      -4.10453655      47.86700000       0.06817437       0.05580360      -1.53499283       0.06817437       0.05580360      -1.53499283 
Ti      -0.05289603       5.26614783       9.70589622       0.32091180       0.07003691      -1.37572580      47.86700000       0.07432249      -0.68477760      -0.08590753       0.07432249      -0.68477760      -0.08590753 
Ti      -0.28538726       6.72471197      11.97791647       1.82607160       0.49800298       2.99030134      47.86700000       0.69531762       0.15415698       0.47690469       0.69531762       0.15415698       0.47690469 
Ti       6.37416360      -0.35123734      -0.00414005      -0.62307702       0.17472150       1.22508008      47.86700000      -0.21379827       0.27358854       0.93097266      -0.21379827       0.27358854       0.93097266 
Ti       5.68990656       1.50687780       2.40415573      -0.20536806      -1.74493673       0.82548587      47.86700000       0.52823284      -0.11272040      -0.36346857       0.52823284      -0.11272040      -0.36346857 
Ti       5.83195433       0.17158170       4.43394351       2.24104450       0.37632565       2.86214443      47.86700000       0.43439572      -0.49368162       0.74873723       0.43439572      -0.49368162       0.74873723 
Ti       5.95612132       1.99102739       7.23765021      -3.42389704      -4.16033377       2.76928195      47.86700000      -0.47654253      -0.82727255      -0.37814106      -0.47654253      -0.82727255      -0.37814106 
Ti       5.96473107      -0.04809491       9.50161485       1.40161950       2.47020871      -0.26833661      47.86700000      -0.15645131       0.37152056      -0.02378036      -0.15645131       0.37152056      -0.02378036 
Ti       5.79965876       1.43291143      11.91828842       2.80948156      -1.31383506       2.20034449      47.86700000       0.26887492      -0.11234303       0.19456154       0.26887492      -0.11234303       0.19456154 
Ti       4.73173793       2.54354101      -0.01670806       1.37796741       1.39493773       1.08928904      47.86700000      -0.82939310      -0.92242699       0.10195916      -0.82939310      -0.92242699       0.10195916 
Ti       4.43446296       4.25884211       2.41820819      -1.65674503       0.08414792       0.98794581      47.86700000       0.58718691       0.22448771      -0.27329847       0.58718691       0.22448771      -0.27329847 
Ti       4.52439659       2.80287016       4.58707244      -2.84919666      -4.40937302       0.10896403      47.86700000      -0.76629787      -0.47123558       0.45178863      -0.76629787      -0.47123558       0.45178863 
Ti       4.36600437       4.46606818       6.86217968       2.21053010       0.30017173       1.29232524      47.86700000       0.48087535       0.36527657       1.51469522       0.48087535       0.36527657       1.51469522 
Ti       4.23753774       2.68401132       9.36621733      -0.50204203      -0.45707368      -5.71031434      47.86700000       0.25275640      -0.03127846       0.49511391       0.25275640      -0.03127846       0.49511391 
Ti       4.65344443       4.04558607      12.06095752       1.44507765      -0.13070719       0.14543838      47.86700000       0.04027501      -0.11720287      -1.15644110       0.04027501      -0.11720287      -1.15644110 
Ti       3.15803390       4.55778648      -0.09944859      -4.97796190      -4.26262674       2.13411386      47.86700000       0.22701944       1.55434146       0.62366911       0.22701944       1.55434146       0.62366911 
Ti       3.00345569       6.77146725       1.99454999      -2.51334095       0.58374201       0.53169499      47.86700000      -0.66859483      -0.21153790      -0.52218329      -0.66859483      -0.21153790      -0.52218329 
Ti       2.86488507       5.15440426       4.71380731      -3.83299393       0.97182414      -3.27808825      47.86700000       0.11267253       0.76551191      -0.41927941       0.11267253       0.76551191      -0.41927941 
Ti       2.82118952       7.09089810       6.77147473      -2.72759801       2.31781912      -0.60900305      47.86700000       0.16800031      -0.00360982       1.05037989       0.16800031      -0.00360982       1.05037989 
Ti       2.81165346       5.09080779       9.29913166       3.13924088       0.60594240       0.95278453      47.86700000       1.29769495       0.74006019       1.21730127       1.29769495       0.74006019       1.21730127 
Ti       3.08804584       6.45726259      12.06556892       0.47105552       1.02830073      -1.39192889      47.86700000      -0.51761591       0.37399158      -0.94853083      -0.51761591       0.37399158      -0.94853083 
