54
Lattice="9.787706024992827 1.5111959773950004e-32 4.0392805617045097e-38 -1.5111959773950004e-32 9.787706024992827 7.646795577667676e-39 -3.09513434195661e-38 -3.558886819685004e-38 19.575412049985655" Properties=species:S:1:pos:R:3:momenta:R:3:masses:R:1:force:R:3:forces:R:3 energy=-280.185586738 config_type=HMD_bcc_surf pbc="T T T"
Ti       0.60013386       0.13250767      -0.27060119       4.34231440       2.56415785       0.53278604      47.86700000       0.39359228      -0.75406052       0.43772519       0.39359228      -0.75406052       0.43772519 
Ti       1.72328817       1.74711088       1.03138990       2.38099737       2.23170648      -1.67223399      47.86700000       0.26558260       1.10676354      -0.57568256       0.26558260       1.10676354      -0.57568256 
Ti      -0.19625989       0.37487284       2.81797510      -0.45731520      -0.19094083      -0.24530584      47.86700000       0.21920801       0.71007739       0.60351790       0.21920801       0.71007739       0.60351790 
Ti       1.47753494       1.98185169       5.16955553       1.84591723      -1.19314128       2.87250672      47.86700000       0.76430486       0.00800328      -0.69391814       0.76430486       0.00800328      -0.69391814 
Ti      -0.02904629       0.09738762       6.79397962       2.22011807      -2.17512416       3.16714818      47.86700000      -0.52906711       1.32124815       0.21287106      -0.52906711       1.32124815       0.21287106 
Ti       2.94859834       3.25518324       9.57021026      -0.19873765       6.54425680       4.13982381      47.86700000       0.42673096      -1.25938256       0.32057193       0.42673096      -1.25938256       0.32057193 
Ti      -0.36080965       3.14362282      -1.36977474      -1.99172501       0.10458199      -3.32816315      47.86700000       0.12276151      -0.41306023       1.08141319       0.12276151      -0.41306023       1.08141319 
Ti       1.45081416       4.43958047       0.80720400      -5.63118249       0.72618482       0.13322348      47.86700000      -0.02591936       1.01118868       0.77779165      -0.02591936       1.01118868       0.77779165 
Ti      -0.22125853       3.72799063       3.36313534       3.42988148       0.47966597       2.72137757      47.86700000       0.72814608      -1.32025903      -0.51927520       0.72814608      -1.32025903      -0.51927520 
Ti       1.21206012       4.74708547       5.93365744       2.03123034      -0.57354787      -1.26620882      47.86700000      -0.80291449       0.31093284      -0.68803077      -0.80291449       0.31093284      -0.68803077 
Ti      -0.07943337       4.09311839       7.74648631       0.04061032       2.61315832      -0.54233638      47.86700000       0.96964887      -0.39267011      -0.93894144       0.96964887      -0.39267011      -0.93894144 
Ti       2.20520771       5.69870542       8.20744179      -2.23967564       0.09190429       4.07378518      47.86700000       0.29752113       0.63561505      -0.70325976       0.29752113       0.63561505      -0.70325976 
Ti      -0.15630757       6.06470793      -1.09385861       2.35007159      -0.49284812      -1.52296882      47.86700000      -1.41561678       1.27188045       0.32951199      -1.41561678       1.27188045       0.32951199 
Ti       1.44287304       7.48555053       1.56539436      -4.56376619      -0.28527440      -1.38931601      47.86700000       5.33682059      -0.60677923      -0.53478613       5.33682059      -0.60677923      -0.53478613 
Ti      -0.24427740       6.45080501       3.18886172      -0.24385600      -0.71799914       0.23225340      47.86700000       0.90618627       0.20622753      -0.16221595       0.90618627       0.20622753      -0.16221595 
Ti       0.93028575       8.52873690       4.81019658      -3.38835089       0.90027127      -1.61370809      47.86700000       1.19389945       0.49356714      -1.24705603       1.19389945       0.49356714      -1.24705603 
Ti      -0.18204637       7.30271840       6.76969938      -0.66352870      -4.67899122      -2.36836952      47.86700000      -0.17378739      -1.50965031      -1.12015856      -0.17378739      -1.50965031      -1.12015856 
Ti       1.28246024       7.98380481       8.88254740      -4.21029792      -0.47610117       4.08277535      47.86700000       0.65745130       1.30022421       1.30504804       0.65745130       1.30022421       1.30504804 
Ti       3.69625190       0.19739679      -0.40492178       1.02073345       0.97252044       1.28116508      47.86700000      -0.46887818      -0.02819298       0.37303296      -0.46887818      -0.02819298       0.37303296 
Ti       4.92905082       1.64805923       1.56321059       0.42535115      -2.17814261       1.29513222      47.86700000      -0.05603599      -0.42211073       0.69824598      -0.05603599      -0.42211073       0.69824598 
Ti       2.66404494       0.29609321       2.52576846       2.38812080       1.25103054      -3.17845960      47.86700000       0.63309806      -1.06437045       1.20571624       0.63309806      -1.06437045       1.20571624 
Ti       4.81291785       1.27410323       4.70344714       0.98048657       1.61194798       1.84973053      47.86700000       0.05985450      -0.09078080      -1.66624726       0.05985450      -0.09078080      -1.66624726 
Ti       2.86186468       0.38477857       6.39145485      -0.79380558       1.83804179      -2.99039080      47.86700000      -0.21522900      -0.60518926       0.69453536      -0.21522900      -0.60518926       0.69453536 
Ti       2.94569076      -0.38682280      10.12924971      -6.19025579      -3.35969845       2.84121780      47.86700000      -0.08046455      -0.01951844      -1.01017192      -0.08046455      -0.01951844      -1.01017192 
Ti       3.88939848       3.20400645      -0.90277387       5.06292763       1.83104685      -1.12976064      47.86700000      -0.58451196      -0.05689037       1.17458866      -0.58451196      -0.05689037       1.17458866 
Ti       5.15640677       4.06238340       1.62826825       1.20066395      -1.97298078      -3.95481959      47.86700000       0.88868967       0.71038893       0.02783946       0.88868967       0.71038893       0.02783946 
Ti       3.28847413       3.68815454       3.30651802       2.00947869      -2.48267254       1.53851044      47.86700000      -1.07048247      -1.34888319       0.02436313      -1.07048247      -1.34888319       0.02436313 
Ti       5.41259999       5.13441116       4.72090705       0.77618877      -0.16763303      -0.74936473      47.86700000      -0.85497007       1.51088526      -0.94151290      -0.85497007       1.51088526      -0.94151290 
Ti       3.34065943       3.02112364       6.35276751      -0.18872429      -2.64450376      -1.19655399      47.86700000      -0.63012699       0.82911800       0.37260539      -0.63012699       0.82911800       0.37260539 
Ti       4.82855773       6.14263852       7.32073343      -1.32002225       1.46666898      -0.48346484      47.86700000       0.16125552      -0.51302961       1.13548078       0.16125552      -0.51302961       1.13548078 
Ti       3.88778876       5.91787104       0.48463599      -1.34881504      -1.01795692       0.33371700      47.86700000      -0.48600353       0.49971819      -0.02279795      -0.48600353       0.49971819      -0.02279795 
Ti       4.86784746       8.24225336       2.06471079      -3.83187750      -1.14427209       3.51655274      47.86700000      -0.53040029      -0.01517801      -0.13348954      -0.53040029      -0.01517801      -0.13348954 
Ti       2.82114912       6.40667444       3.48884083       0.88238121       4.39972447       2.13352691      47.86700000       0.11022844      -0.07715107      -0.02492810       0.11022844      -0.07715107      -0.02492810 
Ti       5.09940337       8.34777769       4.83950680       0.05931077       3.58480731      -1.46900170      47.86700000       0.47586342       0.10705091      -0.63886895       0.47586342       0.10705091      -0.63886895 
Ti       2.66739880       7.31109265       5.66289379      -2.96226429       2.15725085      -2.20001800      47.86700000       0.42332925      -0.82083972       1.11179342       0.42332925      -0.82083972       1.11179342 
Ti       5.96698861       7.02465485       9.27187527       0.32695332     -10.81550517       2.14332679      47.86700000      -0.14652180       0.23074866      -1.12365679      -0.14652180       0.23074866      -1.12365679 
Ti       6.34817682      -0.56112331       0.04973489       1.36481860      -0.21048915      -0.78073930      47.86700000       0.26353975       0.42005688       1.06083562       0.26353975       0.42005688       1.06083562 
Ti       8.54055198       1.44628935       0.84601538      -2.01333884      -1.40532404      -0.69136200      47.86700000      -0.41828790       1.06783598      -0.12037392      -0.41828790       1.06783598      -0.12037392 
Ti       7.21600915       0.01100970       2.71911472       5.92242033      -0.98410772      -0.37107107      47.86700000      -0.26903742      -0.05024944       1.15122375      -0.26903742      -0.05024944       1.15122375 
Ti       8.40375538       1.36849852       5.39290169       0.29255980      -0.85972553       1.96049436      47.86700000      -0.05173102       0.04163620       0.45129504      -0.05173102       0.04163620       0.45129504 
Ti       5.81695073       0.11941182       6.62269946       1.31700895      -0.48719009      -4.85254984      47.86700000       0.21925964      -0.00257594       0.26218679       0.21925964      -0.00257594       0.26218679 
Ti       7.69554767       1.56126375       8.14160061       2.20299252      -3.76457153      -0.64020057      47.86700000      -0.22595796       0.55384823       0.17843739      -0.22595796       0.55384823       0.17843739 
Ti       6.33116985       1.87205810      -0.83345093      -1.84312285      -6.41134460      -0.18544928      47.86700000      -0.15268846       0.45581688      -0.21428604      -0.15268846       0.45581688      -0.21428604 
Ti       8.08669557       4.37300502       0.99471977       1.16208583       0.10518610       1.31744931      47.86700000       0.10205404       0.40094058      -0.18329026       0.10205404       0.40094058      -0.18329026 
Ti       6.96439663       3.15346173       4.01429782       0.74748083      -5.25035628       2.28355447      47.86700000      -0.25157639      -0.43264128      -2.02434599      -0.25157639      -0.43264128      -2.02434599 
Ti       8.08902178       4.65689741       5.66248247      -3.66971064       1.21865863       2.58974590      47.86700000       0.00834679       0.48053739      -0.15205517       0.00834679       0.48053739      -0.15205517 
Ti       5.82493015       3.17258826       6.55480596       2.26164230       0.15238570       1.14905219      47.86700000       1.11919154      -0.77917919       0.88631329       1.11919154      -0.77917919       0.88631329 
Ti       7.24179974       4.30239084       8.84962830       2.53890059       0.15380791       2.11319790      47.86700000      -0.62878373       0.96801521      -0.47817928      -0.62878373       0.96801521      -0.47817928 
Ti       7.37011963       7.03697880      -1.26909451      -3.04882213       6.65634920      -5.88935609      47.86700000       2.48172106      -1.89167054       0.49704541       2.48172106      -1.89167054       0.49704541 
Ti       9.05269725       7.87002578       1.41586464      -2.32064478       1.64975053       0.13605618      47.86700000      -6.68928814      -0.34501911      -1.08379943      -6.68928814      -0.34501911      -1.08379943 
Ti       6.86194454       6.06945142       3.17375105      -3.17775436       4.92919791      -0.08871625      47.86700000      -0.71704056      -0.03855838       0.43418101      -0.71704056      -0.03855838       0.43418101 
Ti       8.47145455       8.62143811       5.21789731      -2.30065767       2.90119731      -4.14243842      47.86700000      -0.95673374      -0.33928705      -0.58711326      -0.95673374      -0.33928705      -0.58711326 
Ti       6.81135722       7.13806725       6.78185262       0.61682169      -1.09744610      -0.70789931      47.86700000      -0.13785941      -0.96149753       0.77742989      -0.13785941      -0.96149753       0.77742989 
Ti       8.15649601       8.83968231       8.81797126       6.39778317       3.90242830      -0.78788290      47.86700000      -0.65837088      -0.49365048       0.00284079      -0.65837088      -0.49365048       0.00284079 
