53
Lattice="9.787706024992827 1.5111959773950004e-32 4.0392805617045097e-38 -1.5111959773950004e-32 9.787706024992827 7.646795577667676e-39 -3.09513434195661e-38 -3.558886819685004e-38 9.787706024992827" Properties=species:S:1:pos:R:3:momenta:R:3:masses:R:1:force:R:3:forces:R:3 energy=-306.206184177 config_type=HMD_bcc_vac pbc="T T T"
Ti       1.57095979       1.44867557       1.45666989      -4.29592678       1.22362057       1.41052625      47.86700000       0.03694562      -0.22646694      -1.45862058       0.03694562      -0.22646694      -1.45862058 
Ti       0.08425831       0.09941468       2.95384023      -4.36726714       2.80724080       1.30893390      47.86700000      -0.46731320      -0.21005855       0.93459883      -0.46731320      -0.21005855       0.93459883 
Ti       1.52183914       1.56091401       5.19563289      -2.50166422      -1.65460838       2.09395334      47.86700000      -0.41865514      -0.09929036      -0.39639040      -0.41865514      -0.09929036      -0.39639040 
Ti      -0.02234661      -0.21913547       6.87639484       3.87232567      -3.91233656      -5.09665650      47.86700000       0.54405146       0.93339725       0.25765282       0.54405146       0.93339725       0.25765282 
Ti       2.06561531       1.13214012       8.54483616       1.37568711       0.28221944       0.11895650      47.86700000      -1.33673796       1.46694148      -0.80830456      -1.33673796       1.46694148      -0.80830456 
Ti      -0.17352698       3.30604095      -0.34847476      -0.20452363      -2.98869495      -0.65821903      47.86700000       1.10554957      -0.91422354       0.72854370       1.10554957      -0.91422354       0.72854370 
Ti       1.13503345       5.60591422       1.41224612       1.13022509       0.70238396       0.76285211      47.86700000       0.42513496      -1.62929554       0.23529294       0.42513496      -1.62929554       0.23529294 
Ti       0.34882164       3.08592394       2.89929707       2.39459471       5.14406589      -1.99425411      47.86700000      -1.49786919       1.05332430       0.22495536      -1.49786919       1.05332430       0.22495536 
Ti       1.37410720       4.75252865       4.75492442       3.62609030       0.62898508       4.64246820      47.86700000       0.27401889      -0.14377793       1.06274102       0.27401889      -0.14377793       1.06274102 
Ti      -0.20413001       3.15964907       6.67878951       3.31384062      -0.72322341      -0.11023200      47.86700000      -0.56153645      -1.35818365       0.04885589      -0.56153645      -1.35818365       0.04885589 
Ti       1.73216640       4.57580315       7.85899510       2.34468892       0.74474384       0.02367109      47.86700000       0.33778514       0.23033979       0.53564355       0.33778514       0.23033979       0.53564355 
Ti      -0.24884297       6.40723867      -0.50759991       0.62681542      -2.81719734      -0.16182823      47.86700000       0.53672265       0.17470771       0.83900209       0.53672265       0.17470771       0.83900209 
Ti       1.53430038       8.36291182       1.47414884      -3.46891670      -2.27660083       0.90513178      47.86700000      -0.16353743      -0.26653956       0.23686947      -0.16353743      -0.26653956       0.23686947 
Ti      -0.36938785       6.58538717       3.44175934      -4.78960754       0.47239104      -2.03478895      47.86700000       0.36639546      -0.21920429      -0.57134820       0.36639546      -0.21920429      -0.57134820 
Ti       1.43865531       7.80428011       5.11218418      -0.88855180      -2.77138807      -2.70343102      47.86700000       0.80433784       2.07549758      -1.25169887       0.80433784       2.07549758      -1.25169887 
Ti       0.11566683       6.77526768       6.63638763      -0.60444498       0.40186501       0.39362311      47.86700000      -0.36267363      -1.20764278      -0.14357155      -0.36267363      -1.20764278      -0.14357155 
Ti       1.99160326       7.88708482       8.45803682      -1.17252098      -2.42134774       1.68123952      47.86700000      -0.61228179       1.24665508      -0.00306883      -0.61228179       1.24665508      -0.00306883 
Ti       3.89477078      -0.14999116       0.15709394      -1.25005998       0.20975427      -1.54768852      47.86700000      -0.32044303      -0.82484946       0.88985009      -0.32044303      -0.82484946       0.88985009 
Ti       4.97391050       1.51326141       1.83286816      -3.32656186      -2.73264427       0.51026862      47.86700000       0.05416371       1.60304174       0.24483193       0.05416371       1.60304174       0.24483193 
Ti       3.29626534       0.25983416       3.02389107      -5.57547774      -0.34787155       2.11475070      47.86700000      -0.75864011      -1.21888158       1.28968326      -0.75864011      -1.21888158       1.28968326 
Ti       4.73875872       1.39855955       4.94873148      -2.32417345       4.32679926      -7.00405724      47.86700000       1.15405834       0.89807607      -0.68063573       1.15405834       0.89807607      -0.68063573 
Ti       3.22485079      -0.05944396       6.52402867      -0.35004419       1.17636333       4.42444472      47.86700000      -0.56173392      -0.49209961       0.33407565      -0.56173392      -0.49209961       0.33407565 
Ti       4.82998754       2.03019496       8.71512538      -1.33941786      -0.17970317       0.27691196      47.86700000      -0.48761600      -0.21720673      -2.17444933      -0.48761600      -0.21720673      -2.17444933 
Ti       3.06527184       3.51052462       0.35842079       0.68980547       3.27344310      -1.34241883      47.86700000      -0.06086555       0.33554581       0.16969997      -0.06086555       0.33554581       0.16969997 
Ti       5.31609494       5.39002811       1.32848264       1.21696186       2.05417490       0.23102936      47.86700000      -2.87928469      -4.76194237       2.86588215      -2.87928469      -4.76194237       2.86588215 
Ti       2.83608457       3.06390973       3.34722846       0.15227881      -1.56698006      -1.13904571      47.86700000       1.13462812       0.49000798      -1.00863522       1.13462812       0.49000798      -1.00863522 
Ti       4.85104068       4.70516814       4.32987696       2.77757183       1.88674610       1.11654525      47.86700000      -1.25894803       1.39983571       1.24230207      -1.25894803       1.39983571       1.24230207 
Ti       3.49639503       3.09414270       6.21744363       2.58490336       1.78127104      -0.82262312      47.86700000      -0.40146115       0.50496475       1.23725446      -0.40146115       0.50496475       1.23725446 
Ti       5.09430106       5.15397223       8.37737142       1.59307311      -0.13381199       1.54061273      47.86700000      -0.19520487      -1.05441295      -0.75935669      -0.19520487      -1.05441295      -0.75935669 
Ti       3.36298805       6.34619512      -0.10236174       0.20951843       0.48963169       3.73567166      47.86700000      -0.55800964       0.59243918      -0.34065130      -0.55800964       0.59243918      -0.34065130 
Ti       4.48279622       7.78821254       2.30406778      -0.40268803      -0.36558336      -0.17213870      47.86700000      -0.61707027      -0.09774793      -0.95171954      -0.61707027      -0.09774793      -0.95171954 
Ti       2.98434282       6.38995912       3.47046858       4.14246957      -3.32729849       1.85752510      47.86700000      -0.13662872       0.33188662      -0.92746081      -0.13662872       0.33188662      -0.92746081 
Ti       5.21990122       8.44503190       5.02677652      -0.17600176      -2.51243175       4.65085946      47.86700000      -0.83205909      -0.62605820       0.35924711      -0.83205909      -0.62605820       0.35924711 
Ti       3.22241668       6.60725017       6.40618407      -1.91897864       0.12418123      -1.05312565      47.86700000       0.74584200      -0.83870750       0.10870162       0.74584200      -0.83870750       0.10870162 
Ti       4.89336217       8.48839517       7.98107343      -1.49243604       0.69477515      -1.28645816      47.86700000       0.43444992      -0.75899345      -0.42500039       0.43444992      -0.75899345      -0.42500039 
Ti       6.68034098       0.23432058      -0.22980084       0.47771979       0.42780376      -5.62046200      47.86700000      -0.40295881       0.02331196       0.67926003      -0.40295881       0.02331196       0.67926003 
Ti       7.76694531       1.97126109       1.78791240      -1.73666939       1.99174741       1.03292902      47.86700000       1.66313081      -1.01398086      -0.98274482       1.66313081      -1.01398086      -0.98274482 
Ti       6.14372785      -0.27678511       2.73382065       3.23185398       0.61066319      -4.84381868      47.86700000       1.00120431       1.37043767       0.23834209       1.00120431       1.37043767       0.23834209 
Ti       8.25992097       1.45917628       4.40868618      -0.34926843       2.92783623      -3.16052895      47.86700000      -0.78901006       1.09692673       1.32148594      -0.78901006       1.09692673       1.32148594 
Ti       6.93697914       0.54871726       6.73054987       2.22095310       3.43191453       4.56922789      47.86700000      -0.62581822       0.79529539       0.10217020      -0.62581822       0.79529539       0.10217020 
Ti       9.18758778      -0.04960029       9.58163687       0.90745045       0.46143295       0.32920550      47.86700000       1.21683351       1.17344828       0.52298078       1.21683351       1.17344828       0.52298078 
Ti       6.88866944       3.06032163      -0.14564517      -2.80760850      -0.12753211      -1.72468687      47.86700000      -0.53468955      -0.22910696      -0.39810739      -0.53468955      -0.22910696      -0.39810739 
Ti       7.73638950       4.95444406       0.96181215       0.03323727      -1.48122367      -2.22246188      47.86700000       1.67628641       0.14858017       1.14815832       1.67628641       0.14858017       1.14815832 
Ti       6.57505536       3.70219288       3.30055765       0.09714939       1.71090134       1.98731768      47.86700000       1.83292270      -1.23851071      -0.61429345       1.83292270      -1.23851071      -0.61429345 
Ti       8.46002680       4.90360907       5.23051401      -0.23235699       2.22748696       0.42478674      47.86700000      -1.07736271      -0.37443131      -1.05252507      -1.07736271      -0.37443131      -1.05252507 
Ti       6.35075183       3.26889790       6.15559910       3.38315086      -4.42561019       3.45741492      47.86700000       0.72434125       0.40782235       0.85762064       0.72434125       0.40782235       0.85762064 
Ti       8.01542119       5.06613984       7.98822421       0.21949627      -5.81774750       1.90509614      47.86700000      -0.42816831       0.36172958      -0.15097452      -0.42816831       0.36172958      -0.15097452 
Ti       6.26262406       7.10520035       0.29471613      -1.20258350      -0.28582878       0.44469491      47.86700000       1.46984433       3.52167877      -2.90962109       1.46984433       3.52167877      -2.90962109 
Ti       8.30625911       7.90868639       1.65818353      -1.80335118      -3.25709990      -1.02702824      47.86700000       0.89831659       0.45838828      -0.00490824       0.89831659       0.45838828      -0.00490824 
Ti       6.79593363       6.80408556       3.34072551      -0.47625463       2.38055412       1.39197183      47.86700000      -0.33413330      -1.24504184       0.44120274      -0.33413330      -1.24504184       0.44120274 
Ti       8.02925053       8.59464438       5.09440322       3.12259049       1.09438387      -5.74469763      47.86700000       0.61938542      -0.83374175      -0.74980582       0.61938542      -0.83374175      -0.74980582 
Ti       6.07764582       6.41950769       6.30815964       3.52955172       0.87978464       2.70376822      47.86700000       0.90180591       0.12781707      -0.21906094       0.90180591       0.12781707      -0.21906094 
Ti       8.07152466       8.24332229       7.87849081      -0.21664769      -0.44240067      -0.57573816      47.86700000      -1.27744408      -0.72170096      -0.17395136      -1.27744408      -0.72170096      -0.17395136 
