54
Lattice="8.870728496683665 -2.8425469926068123e-15 1.1324443957325822e-38 -4.43536424834183 7.682276228202598 7.663162776850163e-25 5.474060799563254e-39 -1.4310661229599006e-24 14.346354863571726" Properties=species:S:1:pos:R:3:momenta:R:3:masses:R:1:force:R:3:forces:R:3 energy=-315.006613598 config_type=HMD_hcp pbc="T T T"
Ti      -0.27377802       0.16178809       0.19088596      -6.01851964       3.74024084       4.51898782      47.86700000       2.21799802      -0.56870209      -1.28012168       2.21799802      -0.56870209      -1.28012168 
Ti      -0.02434738       1.64019636       2.48582077      -0.71442250      -1.55425383       2.32540148      47.86700000      -0.25025940      -0.10129484      -0.50677492      -0.25025940      -0.10129484      -0.50677492 
Ti       0.22097284      -0.09817964       4.86151452       5.08628578      -2.39525972       2.10755179      47.86700000      -1.12036177       0.31380672       0.24313560      -1.12036177       0.31380672       0.24313560 
Ti       0.15951873       1.79976630       6.99055460       3.48682633       2.16388326      -4.26874511      47.86700000      -1.34076680      -0.53724766       1.16236839      -1.34076680      -0.53724766       1.16236839 
Ti      -0.14929285       0.17276819       9.65697163      -3.85106887       4.15172372       2.03442250      47.86700000       0.01700995      -0.38642848      -0.19034988       0.01700995      -0.38642848      -0.19034988 
Ti      -0.04389361       1.90616944      11.98543014      -1.19073904       4.50524588       0.72061109      47.86700000       0.14188571      -1.50139760      -0.32582273       0.14188571      -1.50139760      -0.32582273 
Ti      -1.29738433       2.35390462      -0.14919211       4.41569244      -4.71571625      -3.10789366      47.86700000      -0.84687045       1.33015154       1.74225978      -0.84687045       1.33015154       1.74225978 
Ti      -1.30620182       4.15394520       2.52600423       4.19089437      -2.75735653       3.00982726      47.86700000      -0.68087715       0.54592916      -1.13813915      -0.68087715       0.54592916      -1.13813915 
Ti      -1.55963403       2.72086331       4.74497963      -1.68134270       3.49624234      -1.03526096      47.86700000       0.96742698      -1.41948687      -0.11172567       0.96742698      -1.41948687      -0.11172567 
Ti      -1.42358293       4.16630634       7.03016213       1.26425042      -2.25720052      -3.69875952      47.86700000      -0.28824709       0.68400682       0.09420746      -0.28824709       0.68400682       0.09420746 
Ti      -1.70498977       2.71663951       9.42357112      -5.57910530       3.89969088      -3.25212276      47.86700000       0.95206885      -0.36953354       0.88025348       0.95206885      -0.36953354       0.88025348 
Ti      -1.30417533       4.33120906      12.19383502       4.36056811       1.61293383       5.59965310      47.86700000      -0.45043130      -0.03975870      -1.28790254      -0.45043130      -0.03975870      -1.28790254 
Ti      -3.01905231       5.26595655      -0.05705998      -1.66987333       3.53357899      -1.12555717      47.86700000      -0.31215129      -0.86441867       0.58669234      -0.31215129      -0.86441867       0.58669234 
Ti      -2.98817345       6.71182085       2.69677979      -0.22352879      -2.92409109       7.30382472      47.86700000       1.18116153      -0.18050970      -1.20091313       1.18116153      -0.18050970      -1.20091313 
Ti      -3.04978994       5.18031736       4.53086537      -1.96831448       1.45871350      -5.86974029      47.86700000       0.86394352       0.05320971       1.26764361       0.86394352       0.05320971       1.26764361 
Ti      -2.93118979       6.78093835       7.26143059       0.35834498      -1.04430129       2.12629858      47.86700000      -0.50647233       0.53941483      -0.36355759      -0.50647233       0.53941483      -0.36355759 
Ti      -3.21884246       5.12230422       9.25955398      -6.43316965       0.09563505      -7.79488712      47.86700000       0.98705539      -0.28289181       0.29388176       0.98705539      -0.28289181       0.29388176 
Ti      -2.64438596       6.68160221      12.09956763       7.46427917      -3.43183254       3.52745324      47.86700000      -1.29736889       0.93026367      -0.59878332      -1.29736889       0.93026367      -0.59878332 
Ti       2.92850953       0.12098641       0.13788094      -0.71278434       2.78050357       3.42739015      47.86700000      -0.09449141      -0.42258200      -0.42227616      -0.09449141      -0.42258200      -0.42227616 
Ti       2.92586240       1.33002599       2.36574451      -0.72112284      -9.18224075      -0.71151643      47.86700000       0.07645150       1.30631211      -0.02072317       0.07645150       1.30631211      -0.02072317 
Ti       3.01103398       0.32957776       4.59086368       1.64814961       7.79199921      -4.48079648      47.86700000       0.36989364      -1.70276870       1.08155103       0.36989364      -1.70276870       1.08155103 
Ti       2.85203040       1.87812842       7.27974408      -2.70737582       3.74425154       2.39120790      47.86700000       0.41999700      -1.32766344      -0.98459704       0.41999700      -1.32766344      -0.98459704 
Ti       3.00416511      -0.06880071       9.59291982       0.86986924      -2.04747490       0.90631937      47.86700000      -0.18815497      -0.81464757       0.13601783      -0.18815497      -0.81464757       0.13601783 
Ti       2.78911619       1.81944786      11.94087696      -3.73099134       2.56763490      -0.20695792      47.86700000       0.95972201      -0.53019753       0.41426523       0.95972201      -0.53019753       0.41426523 
Ti       1.51570933       2.66890417      -0.09218709       0.95094464       2.65254902      -1.65318099      47.86700000      -0.23414220      -0.76115141       1.22453577      -0.23414220      -0.76115141       1.22453577 
Ti       1.53440048       4.13294953       2.65004465       1.56347464      -3.62171394       6.15663398      47.86700000       0.49223517      -0.26180273      -1.02043851       0.49223517      -0.26180273      -1.02043851 
Ti       1.43802427       2.24086897       4.76090378      -0.90859152      -7.35792887      -0.51163729      47.86700000       0.42118516       2.19903890      -0.08262298       0.42118516       2.19903890      -0.08262298 
Ti       1.51494543       4.31620102       7.41174032       0.58051499       1.09165669       5.85094577      47.86700000      -0.33416959      -0.53860126      -0.82588538      -0.33416959      -0.53860126      -0.82588538 
Ti       1.42310457       2.12259043       9.73047631      -1.57030373     -10.52806001       3.98306478      47.86700000      -0.31722731       1.86590826      -1.06340274      -0.31722731       1.86590826      -1.06340274 
Ti       1.39066324       4.16966175      12.12203930      -1.80432167      -1.91803458       4.04043955      47.86700000       0.82905162       1.10563859      -0.56967839       0.82905162       1.10563859      -0.56967839 
Ti      -0.31338282       5.09083856       0.12987263      -7.51506149      -0.52431336       3.49301400      47.86700000       1.33573334       0.47177167      -0.06707694       1.33573334       0.47177167      -0.06707694 
Ti       0.52404722       6.74696674       2.36731775      13.03147728      -1.97818609      -0.82252964      47.86700000      -1.51685228       0.31287594      -0.47629378      -1.51685228       0.31287594      -0.47629378 
Ti      -0.07835504       5.23805034       4.53841840      -1.80239192       2.95442002      -5.86677579      47.86700000       0.03641535       0.02481384       1.55567039       0.03641535       0.02481384       1.55567039 
Ti      -0.13727565       6.58229448       7.25081508      -3.39593110      -5.84298348       1.61074321      47.86700000       0.34232395       1.44122916      -0.90534334       0.34232395       1.44122916      -0.90534334 
Ti       0.17987502       5.12825750       9.37346166       4.29639276      -0.21983773      -4.36718243      47.86700000      -1.23656757      -0.82891561       1.70998998      -1.23656757      -0.82891561       1.70998998 
Ti       0.18270191       6.91591355      12.02259751       4.25985703       1.90197453       1.74990894      47.86700000      -0.76249652      -0.53020577       0.15492717      -0.76249652      -0.53020577       0.15492717 
Ti       6.05280247       0.17720735      -0.21073678       3.16224726       4.15901533      -5.04685965      47.86700000      -0.67880141      -0.73581411       1.20285814      -0.67880141      -0.73581411       1.20285814 
Ti       5.65355946       1.95670623       2.36027550      -6.11577733       6.12630610      -0.88392322      47.86700000       1.30826868      -0.70394421      -0.09242692       1.30826868      -0.70394421      -0.09242692 
Ti       5.71176667       0.03078834       4.85787994      -4.68943713       0.88511034       1.86773828      47.86700000       1.17351617       0.17302933      -0.17900306       1.17351617       0.17302933      -0.17900306 
Ti       5.79752645       2.05624782       7.28814405      -2.82841712       8.17648722       2.60386350      47.86700000       0.21885324      -1.82427907      -0.67036830       0.21885324      -1.82427907      -0.67036830 
Ti       5.73188164      -0.11804393       9.67594995      -4.27656475      -2.59693492       2.48195692      47.86700000       0.87279449       0.82953033      -1.00710388       0.87279449       0.82953033      -1.00710388 
Ti       5.91536382       1.62370970      12.26060018       0.15382765      -2.07363993       7.20967490      47.86700000       0.19979778      -0.35338032      -1.69488385       0.19979778      -0.35338032      -1.69488385 
Ti       4.44568681       2.46195354      -0.09372278       0.08188758      -2.09076236      -2.17173160      47.86700000      -0.21928838       1.05869465       0.27994157      -0.21928838       1.05869465       0.27994157 
Ti       4.44070919       4.59028496       2.59077402       0.15581565       7.60597268       4.57101437      47.86700000       0.10186400      -1.54256201      -1.01982473       0.10186400      -1.54256201      -1.01982473 
Ti       4.64246995       2.56815665       4.66033509       4.69029977       0.32506954      -3.02869554      47.86700000      -1.54587899       0.51597833       0.29441735      -1.54587899       0.51597833       0.29441735 
Ti       4.05457031       4.19876609       6.97438963      -9.10366691      -1.42791784      -4.96593554      47.86700000       1.56285997       1.02351857       0.61745954       1.56285997       1.02351857       0.61745954 
Ti       4.41130514       2.39422283       9.37185660      -0.85570832      -4.02864281      -4.52289367      47.86700000      -0.68718836       0.92782272       1.29622131      -0.68718836       0.92782272       1.29622131 
Ti       4.80610219       4.09386967      11.71961693       9.12700446      -4.21008734      -6.03896016      47.86700000      -1.03811405       0.69002580       0.28642399      -1.03811405       0.69002580       0.28642399 
Ti       3.13824583       5.00818674       0.02605428       4.38475647      -2.72557310       0.55233340      47.86700000      -1.02397102       0.72503813      -0.61705903      -1.02397102       0.72503813      -0.61705903 
Ti       3.12633965       6.82361181       2.34893894       4.01269487       0.03820386      -0.86348789      47.86700000      -0.95591330       0.61689478       0.46061798      -0.95591330       0.61689478       0.46061798 
Ti       3.03628615       5.06263410       4.77066733       1.28726504      -1.28378423      -0.28746444      47.86700000      -1.46858319       0.09012308      -0.03791063      -1.46858319       0.09012308      -0.03791063 
Ti       2.85093460       6.82505838       6.88177232      -2.74841030       0.31619004      -7.03246106      47.86700000       0.32141117       0.49537682       1.26344549       0.32141117       0.49537682       1.26344549 
Ti       3.02638848       5.32084846       9.56686742       1.61285499       4.71575104       0.05171658      47.86700000      -0.19396205      -1.11888301      -0.31398172      -0.19396205      -1.11888301      -0.31398172 
Ti       2.86766452       6.76924179      11.83811650      -1.67953359      -1.75285589      -2.60604084      47.86700000       1.21868486      -0.02133473       0.82620596       1.21868486      -0.02133473       0.82620596 
