53
Lattice="8.870728496683665 -2.8425469926068123e-15 1.1324443957325822e-38 -4.43536424834183 7.682276228202598 7.663162776850163e-25 5.474060799563254e-39 -1.4310661229599006e-24 14.346354863571726" Properties=species:S:1:pos:R:3:momenta:R:3:masses:R:1:force:R:3:forces:R:3 energy=-311.078124449 config_type=HMD_hcp_vac pbc="T T T"
Ti       0.01784046       1.39725782       2.04726862      -0.36236728       2.36493515       1.27603793      47.86700000      -0.67634586       0.61426860      -0.01630821      -0.67634586       0.61426860      -0.01630821 
Ti      -0.04119452      -0.16428186       4.82491051      -1.52122119       0.21532156       0.36553384      47.86700000      -0.75885309       0.66718338       0.02849571      -0.75885309       0.66718338       0.02849571 
Ti      -0.34539560       1.93479060       6.94970192      -3.26270387      -0.25490419      -0.38053437      47.86700000       1.29189798      -1.27469432       0.57819917       1.29189798      -1.27469432       0.57819917 
Ti       0.26063824      -0.07039505       9.69234745       0.38619898      -2.56411215       2.64561256      47.86700000      -0.57172337       0.60110480       0.28595464      -0.57172337       0.60110480       0.28595464 
Ti      -0.00126352       1.54981070      12.08788811      -0.97553687       2.03907953      -2.55655081      47.86700000       1.10974880       0.22029306      -0.08161111       1.10974880       0.22029306      -0.08161111 
Ti      -1.05985529       2.95012100      -0.26399080       0.36984661       0.35634811       0.52372554      47.86700000      -1.17733432      -0.27510925       0.73590040      -1.17733432      -0.27510925       0.73590040 
Ti      -1.58435403       4.52105524       2.16942228       1.10027059       2.57399053       0.73951607      47.86700000       0.17218574      -0.07759370       0.42554369       0.17218574      -0.07759370       0.42554369 
Ti      -1.63650216       2.59646648       4.41650578       3.08565034       0.64146189      -1.73280287      47.86700000      -0.04742415      -0.22131679      -0.26714956      -0.04742415      -0.22131679      -0.26714956 
Ti      -1.77225155       4.11398013       6.96136348       3.18177653       1.75190818      -2.07148683      47.86700000       0.57932539       0.19981026       0.49980961       0.57932539       0.19981026       0.49980961 
Ti      -1.29679386       2.44932254       9.72006088       0.31638857       2.86362503      -1.63745640      47.86700000      -0.52106756       0.95485897      -0.29279285      -0.52106756       0.95485897      -0.29279285 
Ti      -1.08570029       4.57748287      12.11567350      -0.67259362       0.85365100       0.46667608      47.86700000       0.03447585      -0.92122581      -1.02325817       0.03447585      -0.92122581      -1.02325817 
Ti      -3.03638312       4.89259303      -0.13170564       1.00209667      -2.17092489       1.63131112      47.86700000       0.19915248      -0.30949899       0.28033237       0.19915248      -0.30949899       0.28033237 
Ti      -3.53247225       6.98054399       2.06006007       1.45503731       2.66566003      -2.25968321      47.86700000       0.36928442      -0.96238457       0.43312385       0.36928442      -0.96238457       0.43312385 
Ti      -3.17665741       5.04531418       4.71010135      -1.00319566       1.09871535       2.72911091      47.86700000       0.33031542       0.67829382       0.43494877       0.33031542       0.67829382       0.43494877 
Ti      -2.95331473       6.92601930       7.46481616       0.28843323      -2.27333220      -0.30348536      47.86700000       0.38856449      -0.71346113      -0.99922911       0.38856449      -0.71346113      -0.99922911 
Ti      -2.66086878       5.08888601       9.66023554       1.88065671       3.03330700      -3.90009792      47.86700000      -0.63010149      -0.67556708      -0.79446623      -0.63010149      -0.67556708      -0.79446623 
Ti      -2.83161429       6.47511227      11.99931287       1.59057069       0.38055984      -1.62788391      47.86700000      -0.50112406       1.07711566       0.20332009      -0.50112406       1.07711566       0.20332009 
Ti       2.49568617      -0.09023681      -0.16579931       0.16398127       2.35145411      -2.63059168      47.86700000       0.86798447       0.50100452       0.39912972       0.86798447       0.50100452       0.39912972 
Ti       2.91827374       1.87619440       2.41792972       2.15026140       0.89750023       0.31117310      47.86700000      -0.21337859      -0.85932646      -0.11640226      -0.21337859      -0.85932646      -0.11640226 
Ti       2.74206412      -0.09028412       4.72727715      -1.76876842       1.23684084      -3.59726554      47.86700000      -0.23294888       0.12851707       0.03930491      -0.23294888       0.12851707       0.03930491 
Ti       2.70027816       1.65334435       7.32180596      -1.34651646      -2.80472004      -0.64795372      47.86700000       0.27969440      -0.76048656      -0.11884519       0.27969440      -0.76048656      -0.11884519 
Ti       3.02202601      -0.15276322       9.95581023       1.90856432       0.31326761       0.40754341      47.86700000       0.85919042       0.42685970      -0.90252550       0.85919042       0.42685970      -0.90252550 
Ti       3.05375634       1.70403402      11.99125667      -2.03586515      -0.28702566      -0.52413735      47.86700000      -0.45194501      -0.68168827       0.10002410      -0.45194501      -0.68168827       0.10002410 
Ti       1.62224113       2.88563958      -0.13896382      -0.92005100      -2.75344698      -1.03113408      47.86700000       0.24417160      -0.48630974       0.46219011       0.24417160      -0.48630974       0.46219011 
Ti       1.24431784       4.09121921       2.37938467      -1.25549264      -0.93643719      -2.05509266      47.86700000      -0.07565572       0.59505445      -0.05092765      -0.07565572       0.59505445      -0.05092765 
Ti       1.17514141       2.48533874       4.61374940      -0.93484711      -1.41017632      -0.72645723      47.86700000       0.48262091      -0.10929115       0.36273689       0.48262091      -0.10929115       0.36273689 
Ti       1.45571678       4.08966949       7.14556489      -0.53084681      -2.59195837       0.05477622      47.86700000       0.17722490       0.41213647       0.10182771       0.17722490       0.41213647       0.10182771 
Ti       1.48396506       2.59964302       9.72483567       0.24267328       0.49660750       1.39946050      47.86700000      -0.07010984       0.06660021      -0.38591041      -0.07010984       0.06660021      -0.38591041 
Ti       1.68430293       4.25106697      12.07067047       0.35556393       1.22108895       2.98585511      47.86700000       0.09418946       0.06534149      -0.60138316       0.09418946       0.06534149      -0.60138316 
Ti       0.44178417       5.55138351       0.02754695      -2.96944726      -1.11476090      -2.55305260      47.86700000      -0.69516374      -0.14844952       0.12864784      -0.69516374      -0.14844952       0.12864784 
Ti      -0.22136232       6.98670533       2.27867011      -1.21922338      -4.27121981       1.49334544      47.86700000      -0.48812588       0.42392955       0.18768579      -0.48812588       0.42392955       0.18768579 
Ti      -0.15587008       5.14937728       4.88246780       1.25554343      -0.88131657       1.47833859      47.86700000      -0.16699952      -0.31757404      -0.87140463      -0.16699952      -0.31757404      -0.87140463 
Ti      -0.06961940       6.52940292       7.19708015      -2.18055928      -0.80116905      -0.73919201      47.86700000       0.40948530       1.04519694       0.16037278       0.40948530       1.04519694       0.16037278 
Ti       0.26830074       5.28496114       9.32404756      -0.09596709       1.16954589       2.68368320      47.86700000      -0.63246518      -0.62258219       1.16138348      -0.63246518      -0.62258219       1.16138348 
Ti       0.56254737       6.77520640      12.22189084       3.05529294       1.20134347       3.64988737      47.86700000      -1.01124968       0.88104031      -0.64667515      -1.01124968       0.88104031      -0.64667515 
Ti       6.69710716       0.25088132       0.02396629      -0.40964086       0.02614245      -0.77884737      47.86700000      -0.07580693       0.37788599       0.57553307      -0.07580693       0.37788599       0.57553307 
Ti       5.70867833       2.07820637       2.09615391       0.33659441       0.57378566      -1.00536054      47.86700000       0.77215884      -0.98532412       0.25144384       0.77215884      -0.98532412       0.25144384 
Ti       5.64196678       0.16546669       4.79934883       1.83436838       4.14033375       0.35071928      47.86700000       0.26777336      -0.79107178      -0.54498254       0.26777336      -0.79107178      -0.54498254 
Ti       6.11950767       1.33211032       6.95206986       0.00356895      -1.26492723       1.02794237      47.86700000      -1.01113315       1.08547672       0.63109269      -1.01113315       1.08547672       0.63109269 
Ti       6.01719991       0.20241067       9.59319064       0.83679929      -0.80758109      -1.38557202      47.86700000       0.08211479      -0.92014935      -0.04470523       0.08211479      -0.92014935      -0.04470523 
Ti       5.91605494       1.64021324      12.04313604       0.29484912      -0.01680812       0.54896977      47.86700000       0.96513605       0.77311984      -0.38664397       0.96513605       0.77311984      -0.38664397 
Ti       4.35120514       2.29889768      -0.35114187       0.41173892      -2.64542001       0.61569528      47.86700000      -0.11361274       0.11506479       1.11495190      -0.11361274       0.11506479       1.11495190 
Ti       4.32056427       4.19503110       2.64640780      -1.66301199      -1.83611280      -1.08167624      47.86700000      -0.52923799       0.76459389      -0.76175999      -0.52923799       0.76459389      -0.76175999 
Ti       4.25224044       2.46729157       5.09607140       2.03856617      -1.27834820       0.80853982      47.86700000      -0.37835919       0.26949371      -0.75915491      -0.37835919       0.26949371      -0.75915491 
Ti       4.49363340       3.89705173       7.19520202      -0.36870094       0.33548850       0.31142965      47.86700000      -0.69551905       1.06956153       0.65489184      -0.69551905       1.06956153       0.65489184 
Ti       4.33913782       2.41810612       9.73127615      -0.72130424      -0.93340466       1.20557515      47.86700000       0.62987711       0.53238992      -1.08480726       0.62987711       0.53238992      -1.08480726 
Ti       4.57293243       4.18302459      11.77583197       0.12333930       0.79283200      -1.02877707      47.86700000      -0.11181881       0.10582048       0.29517665      -0.11181881       0.10582048       0.29517665 
Ti       3.15485825       5.38180454       0.21866327       0.48322745       2.52195491       0.74720827      47.86700000       0.34624545      -0.55083523       0.05393511       0.34624545      -0.55083523       0.05393511 
Ti       2.45519509       6.89986077       2.55787671      -1.40401056      -1.77986531       0.70850125      47.86700000       0.50721322       0.15389382       0.38135300       0.50721322       0.15389382       0.38135300 
Ti       2.56770382       5.13484572       4.78163637       0.10800024       2.62772381       2.76917455      47.86700000       0.88201207      -0.25781619       0.28846882       0.88201207      -0.25781619       0.28846882 
Ti       3.29372186       6.74671314       7.37386224      -3.96245995      -3.08704060       1.91668684      47.86700000      -0.88467791      -0.24959378      -0.32434454      -0.88467791      -0.24959378      -0.32434454 
Ti       2.96794991       5.36950957       9.50798514       1.26163762      -0.26606625       0.36853717      47.86700000       0.57085013      -1.12679646       0.68441560       0.57085013      -1.12679646       0.68441560 
Ti       3.27949182       6.86922305      12.29225048       0.06283498      -1.71339428       0.03452541      47.86700000      -0.19071135      -0.50776347      -0.86490651      -0.19071135      -0.50776347      -0.86490651 
