54
Lattice="9.787706024992827 1.5111959773950004e-32 4.0392805617045097e-38 -1.5111959773950004e-32 9.787706024992827 7.646795577667676e-39 -3.09513434195661e-38 -3.558886819685004e-38 9.787706024992827" Properties=species:S:1:pos:R:3:momenta:R:3:masses:R:1:force:R:3:forces:R:3 energy=-303.450646905 config_type=HMD_bcc pbc="T T T"
Ti       0.14012694       0.98501270      -0.26818110       3.93163120      -1.49255262      -1.68330351      47.86700000      -0.28003322       1.23395187       1.12461187      -0.28003322       1.23395187       1.12461187 
Ti       0.54708400       1.08135635       2.55342135      -0.08332396       3.90393540      -1.78992555      47.86700000      -3.28889143      -1.39158695       1.83536720      -3.28889143      -1.39158695       1.83536720 
Ti       1.30494008      -1.08630088       3.71874212       0.28034287      -3.22693782       0.33786789      47.86700000      -1.25554754      -0.11926485       1.04241228      -1.25554754      -0.11926485       1.04241228 
Ti       1.39731187       1.90436680       5.26546725       2.67186738      -1.91324036       3.33979389      47.86700000      -0.01656954      -0.46443452      -0.02797426      -0.01656954      -0.46443452      -0.02797426 
Ti      -0.18330610       0.30097001       6.52565278       1.16329745       2.79325420       7.39859579      47.86700000       0.44473688      -0.20345179      -0.21282667       0.44473688      -0.20345179      -0.21282667 
Ti       2.56636016       1.16848752       7.59245690       0.97659812      -7.08574440       6.24250220      47.86700000      -0.84643426       0.29585342       0.60516801      -0.84643426       0.29585342       0.60516801 
Ti      -2.04821902       4.33310038      -0.39423890      -1.88614490      -1.66607228      -3.54150085      47.86700000       0.68115874      -1.12270319       0.69436689       0.68115874      -1.12270319       0.69436689 
Ti       0.87895272       4.57201327       1.41286069      -3.44671283       4.18070618       1.10888763      47.86700000      -0.66956050      -1.04749888       0.63636458      -0.66956050      -1.04749888       0.63636458 
Ti      -1.41481622       4.73876974       2.45219098       1.21067349       0.95965141      -7.06855674      47.86700000      -1.01215453      -0.55979163      -0.25643043      -1.01215453      -0.55979163      -0.25643043 
Ti       2.36809419       4.10543462       6.71302430       6.57626803      -2.22794450      -2.16023156      47.86700000      -1.07949496      -0.29893982      -5.09988047      -1.07949496      -0.29893982      -5.09988047 
Ti       0.45033710       3.26983260       8.35190204       0.04923464       3.34130696      -7.85669924      47.86700000      -0.41073673      -0.43204697      -0.00568055      -0.41073673      -0.43204697      -0.00568055 
Ti       3.03445668       3.64065173       8.75705494      -2.70877958       1.09580580       2.73658912      47.86700000       2.41552971      -0.63667034       4.94000326       2.41552971      -0.63667034       4.94000326 
Ti       1.11427962       5.56895804      -1.08854411      -3.81493892       0.53193278       5.12231902      47.86700000       1.07784687       1.35280906      -0.24216628       1.07784687       1.35280906      -0.24216628 
Ti       1.49147185       7.21417728       1.64437498       3.84873843       1.97941639      -5.11585029      47.86700000       0.37015096       0.76840534      -2.09677235       0.37015096       0.76840534      -2.09677235 
Ti       0.45354819       5.83206347       4.00457723       7.03697128      -2.72316075      -1.00489865      47.86700000       0.30904379      -0.38020426      -0.51464272       0.30904379      -0.38020426      -0.51464272 
Ti       2.83798653       6.47772861       3.83299648      -2.74341588       2.35329577       1.77565524      47.86700000       0.27346572       0.27238554      -0.39601194       0.27346572       0.27238554      -0.39601194 
Ti      -1.37558472       6.24875420       8.00183357       3.30701405      -4.32272921       4.56310598      47.86700000      -0.65124696       0.10930394      -1.08629677      -0.65124696       0.10930394      -1.08629677 
Ti       0.33218108       8.62961407       8.87147910       0.95876261      -2.56239039      -0.92967130      47.86700000       6.68752325      -3.68517828       0.41194779       6.68752325      -3.68517828       0.41194779 
Ti       3.02553718      -0.05532758       0.18475310       0.71477592       8.11201928       4.29779161      47.86700000      -0.83139180      -0.74993945       0.11650425      -0.83139180      -0.74993945       0.11650425 
Ti       4.76205920       2.30207378       0.77444910      -2.00074577      -0.43281241       4.60214570      47.86700000      -0.13958371      -0.17154257       0.56238829      -0.13958371      -0.17154257       0.56238829 
Ti       3.17529108       0.57365655       2.85040504       1.60782206       1.00176495      -1.02227117      47.86700000       0.38518599      -0.23165478      -0.17206020       0.38518599      -0.23165478      -0.17206020 
Ti       3.92390993       1.22181095       5.20868986       1.82440852      -2.91951519      -3.42222093      47.86700000      -0.31056517       0.97850953       0.53565141      -0.31056517       0.97850953       0.53565141 
Ti       1.84422612      -1.79317695       5.83809871      -0.05132735      -2.18059692       7.68322234      47.86700000      -0.35385555       0.77509338       1.64924279      -0.35385555       0.77509338       1.64924279 
Ti       5.63025708       1.94861805       7.88158550      -3.11684797       0.53658650       1.89453792      47.86700000      -2.33412810       3.18924350       3.40692110      -2.33412810       3.18924350       3.40692110 
Ti       2.02549560       2.09015607       1.24766261      -3.35219504      -0.32444058      -4.82829365      47.86700000       3.00423353       3.21381737      -2.66254752       3.00423353       3.21381737      -2.66254752 
Ti       3.10616046       5.04483490       1.44921953       0.88597200      -3.13003956       1.81636791      47.86700000       1.66359194       0.52401449      -0.50450415       1.66359194       0.52401449      -0.50450415 
Ti       2.76232465       3.43783451       3.75271251      -2.31400863       3.34926861       3.28062882      47.86700000       0.22197173       0.34216969      -0.44184392       0.22197173       0.34216969      -0.44184392 
Ti       7.26949190       5.33172275       4.82141289      -3.07026347      -8.35522582      -0.51397729      47.86700000       0.28730375       0.13023414       1.24627361       0.28730375       0.13023414       1.24627361 
Ti       5.02892832       4.32666800       5.75091086      -2.84659028      -0.79542947       0.79219511      47.86700000      -0.17609626      -2.75495783       1.25593726      -0.17609626      -2.75495783       1.25593726 
Ti       5.53283111       5.13204921       8.04265317       6.31907883      -0.79761100      -1.24292622      47.86700000      -0.39618188      -0.36140212       0.60862107      -0.39618188      -0.36140212       0.60862107 
Ti       3.39837211       7.24632695      -1.04591412       5.84258110       2.33858261      -6.20107788      47.86700000      -0.44965316      -0.41494837       1.09871873      -0.44965316      -0.41494837       1.09871873 
Ti       4.78832287       7.98172456       1.62513445       1.44295473       1.21311700       4.38082649      47.86700000      -3.38513513       1.27381537       3.54977344      -3.38513513       1.27381537       3.54977344 
Ti       5.09415233       5.68481103       3.96079184       1.01639597       1.96112915      -3.76589116      47.86700000       0.20388626       0.53863327      -2.60885331       0.20388626       0.53863327      -2.60885331 
Ti       4.84719164       8.29924522       4.83589930      -0.73219341       3.73220770       0.93804881      47.86700000      -0.05740611       0.19404719      -0.63562705      -0.05740611       0.19404719      -0.63562705 
Ti       3.31811567       6.27873231       6.55601949       5.92949045      -0.07200565      -6.75491553      47.86700000       0.75169014       0.82515871       0.20656024       0.75169014       0.82515871       0.20656024 
Ti       4.25460011       9.16881538       7.03494561      -5.42346814      -1.97976453       2.65957483      47.86700000      -0.27336303      -0.87406793       0.26860705      -0.27336303      -0.87406793       0.26860705 
Ti       5.43379499      -0.26605284      -0.25985460      -4.85347227       3.28319240      -0.75638023      47.86700000       1.29819619       0.56159452       0.23480882       1.29819619       0.56159452       0.23480882 
Ti       7.39432711       1.87962243       1.59616113       3.37174873      -3.00782911      -1.47483517      47.86700000       1.18093257       0.33167751      -0.93488408       1.18093257       0.33167751      -0.93488408 
Ti       5.51502620       0.77183140       3.35166967      -5.55834839       5.10381917      -1.88366495      47.86700000       0.97206122      -1.96555879      -1.83392647       0.97206122      -1.96555879      -1.83392647 
Ti       8.03803651       0.04694953       4.26850570       0.83249343      -3.87867392      -2.27018420      47.86700000       0.47155283       0.26424027      -0.75261177       0.47155283       0.26424027      -0.75261177 
Ti       6.35665887       0.75447983       6.16759291       4.82566275       6.23923427       4.40416797      47.86700000       2.37006616      -1.83297125      -3.37609996       2.37006616      -1.83297125      -3.37609996 
Ti       7.89636453       1.50153346       8.17977326      -1.46621733       7.83439612       0.99271086      47.86700000      -1.22597088       1.14857128       1.18279702      -1.22597088       1.14857128       1.18279702 
Ti       5.81216517       4.77440300       1.18477737      -3.47513156      -3.32610225       4.95678466      47.86700000      -0.46140317      -0.26176284       0.90661265      -0.46140317      -0.26176284       0.90661265 
Ti       9.08497083       6.49477472       1.11430648       2.48106765      -1.99669207       0.89757025      47.86700000      -0.57317806       0.35273615      -0.37717889      -0.57317806       0.35273615      -0.37717889 
Ti       6.19181628       2.92755712       3.52887655       0.43562345       0.59858346       0.04183538      47.86700000      -0.47107695       1.57819910       0.71088066      -0.47107695       1.57819910       0.71088066 
Ti       9.73364344       4.39603719       6.13772922       2.33582274       1.68907474       2.03313890      47.86700000       0.00550566       0.75816075      -0.37179602       0.00550566       0.75816075      -0.37179602 
Ti       8.97400132       2.69280509       4.43775472       5.27811082      -3.76521628      -3.34915882      47.86700000      -0.90072561       0.13369004      -0.34773594      -0.90072561       0.13369004      -0.34773594 
Ti       7.44365072       3.60251286       6.91044758      -2.68785277      -8.33615294       0.19716117      47.86700000      -0.38205247      -0.14922296      -1.27736049      -0.38205247      -0.14922296      -1.27736049 
Ti       6.06674970       6.91114375       0.14380946       2.45292365       1.20973778      -3.63754890      47.86700000       3.60777632      -0.76079912      -2.47658040       3.60777632      -0.76079912      -2.47658040 
Ti       8.16214653       9.13654129       1.43350901      -6.44278168      -2.02873720      -6.84298912      47.86700000      -0.28472466       0.11984706       0.05154632      -0.28472466       0.11984706       0.05154632 
Ti       7.18834672       7.40955637       3.05464339      -7.55157057       0.85696267       1.95896112      47.86700000      -0.11780463       0.29826867       0.27797695      -0.11780463       0.29826867       0.27797695 
Ti       8.92171333       7.59105741       5.24448005      -0.89794871      -1.53564081       4.57223531      47.86700000      -0.40517114       0.17522802       1.16263390      -0.40517114       0.17522802       1.16263390 
Ti       6.34598567       7.60048561       6.64148445      -6.36850682       6.94800212      -3.52912447      47.86700000      -0.17482863      -1.26231413      -0.49132115      -0.17482863      -1.26231413      -0.49132115 
Ti       7.98538915       8.78895158       8.36661334      -2.70914407      -1.07803525      -2.39652002      47.86700000      -5.46844441       0.39325443      -1.11908368      -5.46844441       0.39325443      -1.11908368 
