54
Lattice="8.870728496683665 -2.8425469926068123e-15 1.1324443957325822e-38 -4.43536424834183 7.682276228202598 7.663162776850163e-25 5.474060799563254e-39 -1.4310661229599006e-24 14.346354863571726" Properties=species:S:1:pos:R:3:momenta:R:3:masses:R:1:force:R:3:forces:R:3 energy=-306.562410316 config_type=HMD_hcp pbc="T T T"
Ti       0.11470148       0.52823045       0.35739819       1.25635117       7.15198664       5.30764346      47.86700000      -0.56821744      -1.13121173      -1.07639388      -0.56821744      -1.13121173      -1.07639388 
Ti       0.19525674       1.97890682       2.60698607       3.12446223       3.93035605       3.46444766      47.86700000       0.11068412      -0.43504072       0.02640120       0.11068412      -0.43504072       0.02640120 
Ti      -0.07855106      -0.44663795       4.46024354       0.89252220      -5.22735447      -2.86701408      47.86700000       5.72397709       4.72825362       5.73768415       5.72397709       4.72825362       5.73768415 
Ti       0.28504123       1.86693374       7.09088098       4.54218012       2.84521018      -1.37572155      47.86700000      -0.35236696      -0.19359900       0.30668461      -0.35236696      -0.19359900       0.30668461 
Ti      -0.30257712      -0.27563623       9.37761919      -4.31406315      -3.96435372      -2.34502549      47.86700000       1.12167544       0.65154909       0.98608821       1.12167544       0.65154909       0.98608821 
Ti      -0.06096580       1.51826802      11.98363459      -0.22279065      -2.56473711      -0.08682210      47.86700000       0.88819028       0.47824139      -0.65880233       0.88819028       0.47824139      -0.65880233 
Ti      -1.28814621       2.30509506      -0.07295314       2.47921543      -3.21756230      -0.89023797      47.86700000      -0.38653043       0.94372352       0.48871059      -0.38653043       0.94372352       0.48871059 
Ti      -1.49981710       4.14171655       2.33092316      -0.38478382      -1.57325163      -1.48509210      47.86700000       0.08346774       0.30986403      -0.39945328       0.08346774       0.30986403      -0.39945328 
Ti      -1.81497688       2.41244468       4.36486389      -4.73175294      -1.53580457      -5.36088377      47.86700000       1.29870714       1.15164536       1.68350419       1.29870714       1.15164536       1.68350419 
Ti      -1.10255374       4.22881330       7.28339111       4.65021943      -0.35481007       0.65180936      47.86700000      -1.10789300       0.78349304      -0.55205926      -1.10789300       0.78349304      -0.55205926 
Ti      -1.61475989       2.45899124       9.77054010      -0.51089824      -2.41234274       3.36378921      47.86700000       1.47855134      -0.98880003      -0.21286233       1.47855134      -0.98880003      -0.21286233 
Ti      -1.48686973       4.06226179      11.99361679      -0.23758122      -3.52099785       1.54650230      47.86700000      -0.30924629      -0.90233648       1.00569125      -0.30924629      -0.90233648       1.00569125 
Ti      -3.12032102       4.76332396       0.16340522      -2.17163551      -4.41568991       1.97217510      47.86700000       0.52524665       1.79927239      -0.89139965       0.52524665       1.79927239      -0.89139965 
Ti      -3.06965304       6.85079125       2.53521238      -1.58379105      -0.34650878       0.58213563      47.86700000       0.35188010      -0.76746823      -1.88676571       0.35188010      -0.76746823      -1.88676571 
Ti      -3.19529398       4.98886189       4.52578083      -2.64390365      -2.90386744      -2.75246371      47.86700000       0.29073573      -0.58060950       1.91867573       0.29073573      -0.58060950       1.91867573 
Ti      -3.07233729       6.86715469       7.17603481      -1.02109751       0.30916522      -0.18114806      47.86700000       0.86576800      -0.21803836       0.02252448       0.86576800      -0.21803836       0.02252448 
Ti      -2.84975743       4.90320661       9.76251293       2.07008005      -2.30197220       2.04389543      47.86700000       0.07519897       1.67920554      -1.25690415       0.07519897       1.67920554      -1.25690415 
Ti      -3.20099663       6.75749325      11.87381625      -3.68921621      -0.64516899      -0.60345414      47.86700000       0.16906351       0.36132292       0.55884217       0.16906351       0.36132292       0.55884217 
Ti       2.81308900      -0.03245902       0.01047606      -2.51165448      -0.24731406      -0.72118571      47.86700000       0.36663187       0.00100313      -0.82337752       0.36663187       0.00100313      -0.82337752 
Ti       3.13095372       1.65547666       2.13682346       2.18254794      -0.64934598      -3.33796920      47.86700000      -0.77278778       0.27441826       1.06152662      -0.77278778       0.27441826       1.06152662 
Ti       3.04075557      -0.16995483       4.39925007       1.40874472      -2.20827367      -5.30868353      47.86700000       0.33047840       0.38280406       1.38737358       0.33047840       0.38280406       1.38737358 
Ti       3.07703147       1.86546279       7.25144686       1.62008955       2.66358897       1.07077983      47.86700000      -1.18225121       0.01887478       0.44806306      -1.18225121       0.01887478       0.44806306 
Ti       2.99300293       0.15444109       9.73836542      -0.07184188       2.11534873       2.93765272      47.86700000      -0.99863295      -0.63375212       0.02067750      -0.99863295      -0.63375212       0.02067750 
Ti       3.00759216       2.17466624      12.12524467      -0.37837439       6.90159469       2.33960653      47.86700000      -0.46081208      -1.14760578      -0.34520603      -0.46081208      -1.14760578      -0.34520603 
Ti       1.43807108       2.45092737       0.18513942      -1.04107347      -0.99152302       2.56072387      47.86700000      -1.42078159       0.39695648      -0.55123683      -1.42078159       0.39695648      -0.55123683 
Ti       1.50477077       4.39574229       2.53561809       1.39696174       2.47689132       2.52857433      47.86700000       0.82471529      -0.09898339       0.00962468       0.82471529      -0.09898339       0.00962468 
Ti       1.56056647       2.33442285       4.75480048       1.79879231      -2.84647710      -0.34516162      47.86700000       0.20875955       0.83307842       0.01462297       0.20875955       0.83307842       0.01462297 
Ti       1.39169482       4.63388803       7.41880820      -0.60176873       5.69623851       0.07780541      47.86700000      -0.47704627      -1.65971876     -13.49083269      -0.47704627      -1.65971876     -13.49083269 
Ti       1.75842453       2.71551727       9.52730243       3.85930191       1.59632990      -0.05278961      47.86700000      -0.62944911      -1.08974248       0.70225291      -0.62944911      -1.08974248       0.70225291 
Ti       1.56906090       4.58762041      12.05089709       0.72560316       4.29974142       1.13643704      47.86700000      -0.71138830      -1.14771988      -0.20500776      -0.71138830      -1.14771988      -0.20500776 
Ti      -0.20456121       5.67439084       0.30411578      -2.49495012       6.08548263       2.07031413      47.86700000       0.78054609      -6.39351872      -8.95465974       0.78054609      -6.39351872      -8.95465974 
Ti      -0.18806931       6.79710340       2.12155559      -1.84369390       1.51301819      -1.50341380      47.86700000       1.00506281       5.64382456       8.07525181       1.00506281       5.64382456       8.07525181 
Ti      -0.21875348       5.43003751       4.43612749      -2.90189931       4.44378841      -4.29337407      47.86700000       0.51872859      -0.50987063       1.64788125       0.51872859      -0.50987063       1.64788125 
Ti      -0.14383331       7.15969247       7.06837855      -1.95155525       4.66010699      -2.07967977      47.86700000       0.41062639      -0.94927478       0.01424898       0.41062639      -0.94927478       0.01424898 
Ti       0.21070127       4.72420698       9.25406079       1.64901393      -5.23028689      -2.90351035      47.86700000      -4.69850168       1.63429190       6.84458335      -4.69850168       1.63429190       6.84458335 
Ti      -0.56365914       6.13704030      12.00965839      -8.94480567     -10.04109731      -0.01253283      47.86700000       0.97861315       2.52780747      -0.77354927       0.97861315       2.52780747      -0.77354927 
Ti       6.02639416       0.44909900       0.08202982       1.76583869       5.39461989       1.34654113      47.86700000      -0.19731294      -2.30262429       0.13464965      -0.19731294      -2.30262429       0.13464965 
Ti       5.85188184       1.71974068       2.52764997      -0.88840694      -0.17375326       2.12025014      47.86700000       0.20948651      -0.30748393      -0.23355241       0.20948651      -0.30748393      -0.23355241 
Ti       6.40636144       0.05257008       4.76733177       5.44320004      -0.14819714      -0.28921384      47.86700000      -2.11209969      -0.98499479      -0.20504854      -2.11209969      -0.98499479      -0.20504854 
Ti       6.34819688       1.68373706       7.81363708       6.92361486       0.62198660       8.91868813      47.86700000      -0.50876149       1.15959780      -1.65429093      -0.50876149       1.15959780      -1.65429093 
Ti       5.72045013       0.01850182       9.45706246      -2.94034152      -1.39644062      -0.40397157      47.86700000       0.37327279      -1.54132522       0.93598646       0.37327279      -1.54132522       0.93598646 
Ti       5.47284218       1.55544647      12.00767835      -6.43910517      -3.21833859       0.67405403      47.86700000       0.15347536      -0.25143607       0.34149803       0.15347536      -0.25143607       0.34149803 
Ti       4.48167359       2.50565245      -0.38592693       0.68236185      -0.86231817      -6.02589780      47.86700000      -0.24717662      -0.40207393      -0.09276831      -0.24717662      -0.40207393      -0.09276831 
Ti       4.62975551       3.89282609       2.42553361       1.86939987      -5.36634315       0.67517702      47.86700000      -1.72758133       1.21928063       0.08648449      -1.72758133       1.21928063       0.08648449 
Ti       4.46496425       2.25003825       5.49928296       0.24679718      -5.42141054      11.10568460      47.86700000       0.60919217       0.06021861      -1.92834975       0.60919217       0.06021861      -1.92834975 
Ti       4.46916584       4.16799013       7.11535754       1.39540820      -0.73016489      -0.64955490      47.86700000       1.23783899       0.57903404       0.28547747       1.23783899       0.57903404       0.28547747 
Ti       4.75050596       2.51702894       9.58313888       3.67679883      -0.39790172       0.68239214      47.86700000      -1.29466424      -0.05010574      -0.04557257      -1.29466424      -0.05010574      -0.04557257 
Ti       4.29530388       4.57000464      11.34298560      -2.23218714       4.70340217      -9.37557283      47.86700000       0.73182156      -0.32436829       1.05660858       0.73182156      -0.32436829       1.05660858 
Ti       2.76384988       4.65972088      -0.22150595      -2.72446135      -6.29216722      -3.01635681      47.86700000       0.87518706       1.96719557       0.12314875       0.87518706       1.96719557       0.12314875 
Ti       2.95334686       7.17820880       2.78934524      -1.38164418       4.72275456       4.26016390      47.86700000      -4.17823601      -1.40832067      -6.21608397      -4.17823601      -1.40832067      -6.21608397 
Ti       3.36627234       5.27639076       4.88873658       5.02734583       1.11095420       1.19067689      47.86700000      -2.02138181      -3.67409812      -0.32489956      -2.02138181      -3.67409812      -0.32489956 
Ti       3.11422756       7.37096929       6.96671387       2.55642339       7.05168228      -2.93925739      47.86700000      -0.17547102      -2.02663470       0.48652130      -0.17547102      -2.02663470       0.48652130 
Ti       2.77595429       4.97708187       9.05264339      -1.15642769      -1.07794965      -6.82619543      47.86700000       4.31138673       2.04974117       6.40884467       4.31138673       2.04974117       6.40884467 
Ti       2.93114915       6.93118068      12.16931450      -1.22756949       1.98947722       3.40426401      47.86700000      -0.37037918       0.48605856      -0.04105619      -0.37037918       0.48605856      -0.04105619 
