54
Lattice="9.787706024992827 1.5111959773950004e-32 4.0392805617045097e-38 -1.5111959773950004e-32 9.787706024992827 7.646795577667676e-39 -3.09513434195661e-38 -3.558886819685004e-38 9.787706024992827" Properties=species:S:1:pos:R:3:momenta:R:3:masses:R:1:force:R:3:forces:R:3 energy=-296.893461057 config_type=HMD_bcc pbc="T T T"
Ti      -0.07148920      -0.01682894      -0.29133138      -2.19451135      -2.12877231      -4.97218889      47.86700000       0.30166668      -0.60100199       0.01848611       0.30166668      -0.60100199       0.01848611 
Ti       1.47199442       1.69047691       1.32309483      -1.95424043      -0.65515283      -3.90344239      47.86700000       0.70698678      -0.92704305       0.88633759       0.70698678      -0.92704305       0.88633759 
Ti       0.20296797       0.19036722       3.54038188       4.27319290       3.06708919       2.32449239      47.86700000       0.03899679      -0.92196654      -2.04713776       0.03899679      -0.92196654      -2.04713776 
Ti       1.42249939       1.65979258       5.16680916      -0.69734746      -1.43617674       4.65491965      47.86700000       1.27415810      -0.18871840      -0.46513640       1.27415810      -0.18871840      -0.46513640 
Ti      -0.02535522      -0.59759811       6.08913087      -1.79304207      -8.67503005      -3.84275923      47.86700000       5.68502254       5.47744315       8.42529723       5.68502254       5.47744315       8.42529723 
Ti       1.14800957       1.49366363       7.96502454      -7.00950028      -1.39472448      -4.24977990      47.86700000       1.00734924       0.50765103       0.04435363       1.00734924       0.50765103       0.04435363 
Ti      -0.35065264       2.82846312       0.07957696      -5.08514605      -4.70792202      -2.11779511      47.86700000       0.62141428       1.90181670      -0.19661013       0.62141428       1.90181670      -0.19661013 
Ti       1.96615671       4.37885217       1.50068980      -0.68942575      -2.67000577       2.98430674      47.86700000      -9.60996087       8.98035460       8.13544997      -9.60996087       8.98035460       8.13544997 
Ti      -0.10348446       2.81707269       3.36872958      -2.61620976      -4.24522557       0.46151461      47.86700000       0.60958043       2.70110709      -0.74621833       0.60958043       2.70110709      -0.74621833 
Ti       1.44486979       4.89795414       5.22365663      -1.32159230       1.37523056       3.16789287      47.86700000       5.95617542       5.93866191      -3.71099580       5.95617542       5.93866191      -3.71099580 
Ti       0.05321017       3.41594813       5.92312355      -0.01833590       1.26303614      -7.06493875      47.86700000      -6.28827081      -5.56775236       5.30456050      -6.28827081      -5.56775236       5.30456050 
Ti       1.71754059       4.82506657       7.85767323      -0.55172339      -3.02230783      -2.99150503      47.86700000      -1.29858193      -0.87579613       1.39682881      -1.29858193      -0.87579613       1.39682881 
Ti       0.36647648       6.69232335       0.09140277       4.77260574       1.49420093      -1.38811248      47.86700000      -5.74233555      -6.42676954      -9.85260886      -5.74233555      -6.42676954      -9.85260886 
Ti       1.30711450       7.70292110       1.65354927      -3.33362305      -5.26481560       0.11285882      47.86700000       5.95921576       7.16856697       9.02484605       5.95921576       7.16856697       9.02484605 
Ti       0.11748935       6.45919502       3.33063641       1.01967284      -4.02326782       2.05174568      47.86700000      -0.59794641      -1.60810877      -0.84761781      -0.59794641      -1.60810877      -0.84761781 
Ti       1.69429066       7.90006425       4.76401071       3.24898071      -4.66054639      -2.92539033      47.86700000       0.97813983       0.24930306      -1.14754529       0.97813983       0.24930306      -1.14754529 
Ti       0.32991228       6.50015781       6.94510009       4.00858359       1.08493895       7.46268332      47.86700000      -1.12039525       0.24181547      -0.68711791      -1.12039525       0.24181547      -0.68711791 
Ti       2.02143323       8.42037633       7.94023956       4.95520339       5.78453316      -1.30687155      47.86700000      -0.50389352      -0.27477149       0.94359361      -0.50389352      -0.27477149       0.94359361 
Ti       3.60919787      -0.02302637      -0.04707236       3.18581289      -0.48616965       0.93382243      47.86700000      -2.34943600       0.02836897       0.68938304      -2.34943600       0.02836897       0.68938304 
Ti       4.71671020       1.63992257       1.90359773      -4.06184622       2.38980470       5.25237166      47.86700000      -0.14645298       0.44499548       0.21999850      -0.14645298       0.44499548       0.21999850 
Ti       3.20005232      -0.16942945       2.81769385      -0.71262144      -3.76866847      -6.97708705      47.86700000       0.33768813      -0.27729629       1.03666182       0.33768813      -0.27729629       1.03666182 
Ti       4.84471086       1.52950441       4.99843282      -1.28932238      -1.56277083       0.72689864      47.86700000      -0.67301566      -0.35259075      -0.72576926      -0.67301566      -0.35259075      -0.72576926 
Ti       3.49118619       0.11602246       6.26424601       3.71010045       2.04769308      -4.95600191      47.86700000       0.63346968      -0.09042997      -0.77870358       0.63346968      -0.09042997      -0.77870358 
Ti       4.71892296       1.66671107       8.29238894      -2.31970658       1.68131998       2.77791637      47.86700000       0.47023906       0.48106817       0.39054487       0.47023906       0.48106817       0.39054487 
Ti       3.10821685       3.39378717       0.22094130       3.52830123      -2.70091518      -2.72982109      47.86700000       8.66671093      -7.06823132      -9.87195756       8.66671093      -7.06823132      -9.87195756 
Ti       5.10656119       5.10277291       2.01053056       3.52802830       3.13672049       6.52234294      47.86700000      -2.11238964       0.90341283      -0.76221720      -2.11238964       0.90341283      -0.76221720 
Ti       2.91721697       3.54600714       3.36125771      -5.18516976       3.80599060       2.57337779      47.86700000       1.34008182      -1.77383426       0.94086232       1.34008182      -1.77383426       0.94086232 
Ti       5.10268040       4.71201203       4.86259692       2.41717951      -1.60948665       0.38429825      47.86700000      -0.43590541       0.65681207      -0.25977763      -0.43590541       0.65681207      -0.25977763 
Ti       3.51436142       3.37117419       6.47252219       0.00776724      -3.58730705      -4.88121255      47.86700000      -6.15386017      -8.93379897      -7.70029196      -6.15386017      -8.93379897      -7.70029196 
Ti       4.33578291       4.73199434       7.70764569      -2.49609814       1.65729810      -1.11034982      47.86700000       6.70527409       8.17389450       8.65896038       6.70527409       8.17389450       8.65896038 
Ti       3.33708548       6.20602914      -0.21514766       2.05682901      -5.48078149      -1.93735113      47.86700000      -0.26040903       0.98631224       0.92424564      -0.26040903       0.98631224       0.92424564 
Ti       5.58652913       8.07619305       1.35879410      10.93055097      -1.01389886      -4.48387401      47.86700000      -2.99165815      -6.40741241       3.47909511      -2.99165815      -6.40741241       3.47909511 
Ti       3.66603924       6.67168543       2.97303825       5.49532596       2.36827982      -4.56144076      47.86700000      -1.24114519      -0.84895397      -0.21302692      -1.24114519      -0.84895397      -0.21302692 
Ti       4.99166428       7.80357237       4.78663521      -2.36885010      -2.91406438       1.18896956      47.86700000      -8.78037675       6.36026270       5.88776478      -8.78037675       6.36026270       5.88776478 
Ti       3.20874655       6.79895505       6.72882806       0.52468842       4.57477404      -0.27105185      47.86700000       0.10396729      -0.09777973      -0.99472117       0.10396729      -0.09777973      -0.99472117 
Ti       4.68972811       8.15253334       8.29074767      -1.15216076      -0.19405202       0.83388549      47.86700000       1.89357552       0.51358224      -0.67441770       1.89357552       0.51358224      -0.67441770 
Ti       6.02974609       0.25074124       0.60189461      -7.80306035       2.88842641       9.39916238      47.86700000       2.77651637       6.78211764      -4.25586630       2.77651637       6.78211764      -4.25586630 
Ti       8.19494855       1.63882151       1.63453566      -0.61722629      -1.05373432       1.91424570      47.86700000       0.01434669      -0.29408035       0.28946993       0.01434669      -0.29408035       0.28946993 
Ti       6.66514737      -0.36113230       3.45368564       0.81857720      -4.24112736       3.13126352      47.86700000      -1.57628330       1.39003122      -0.42490981      -1.57628330       1.39003122      -0.42490981 
Ti       7.96571948       1.40428512       4.80023866      -4.06247363      -2.41249184      -0.95769658      47.86700000       0.10275158       0.73687182       0.44993586       0.10275158       0.73687182       0.44993586 
Ti       6.75965723       0.32102080       6.58950362       2.57445960       4.31691909       2.63532134      47.86700000      -0.72162152      -1.04973536       0.21766352      -0.72162152      -1.04973536       0.21766352 
Ti       7.78010753       1.67296928       8.22152136      -4.39773444       0.77909510      -0.37956343      47.86700000      -0.04853029      -0.65157215      -0.84774472      -0.04853029      -0.65157215      -0.84774472 
Ti       6.75760843       3.51283164       0.31382989       1.07661376       4.09032339       3.38747154      47.86700000      -1.57361726      -0.13289997      -0.84538771      -1.57361726      -0.13289997      -0.84538771 
Ti       8.08488313       5.65107985       1.23551174       2.84433295      11.18295559      -2.60655062      47.86700000       8.26504393      -4.86288666       7.39504714       8.26504393      -4.86288666       7.39504714 
Ti       6.29569426       3.54977906       3.13198461      -2.93349513       4.00305743      -3.69896504      47.86700000       2.20820394      -1.83931331       1.42653763       2.20820394      -1.83931331       1.42653763 
Ti       8.09046263       4.75658723       5.14387899      -1.43324636      -0.92675504       2.70688653      47.86700000       1.00783929       0.58132060      -1.02263084       1.00783929       0.58132060      -1.02263084 
Ti       6.58828081       3.12614060       6.75872646       1.19980243      -2.69310011       3.89576076      47.86700000      -0.41808548      -0.26683374      -0.00791010      -0.41808548      -0.26683374      -0.00791010 
Ti       7.98642932       5.23139591       8.08962169      -1.87774633       4.52613457      -0.76438762      47.86700000       1.28736930      -1.15025953      -0.02652769       1.28736930      -1.15025953      -0.02652769 
Ti       6.59399464       6.45448493       0.08145607      -3.58846913      -0.29465743      -1.18178595      47.86700000      -9.39396643       3.65154847      -6.43318555      -9.39396643       3.65154847      -6.43318555 
Ti       7.90934351       8.58684171       1.40978743      -1.19518846       6.62347366      -3.38748564      47.86700000       1.37667638      -1.39170099       0.62930397       1.37667638      -1.39170099       0.62930397 
Ti       6.59480633       6.90100287       3.88871265       4.99118133       1.15164542       6.86449659      47.86700000       9.25378627      -6.36585279      -6.84864628       9.25378627      -6.36585279      -6.84864628 
Ti       8.42910461       8.32588234       4.72190707       5.57805072       1.35522839      -1.65676385      47.86700000      -6.02186242      -4.21445257      -5.30170620      -6.02186242      -4.21445257      -5.30170620 
Ti       6.89249858       6.63497827       6.61744073       4.70661214       2.70504409       1.69141815      47.86700000      -0.69809674      -0.03884338       1.18297049      -0.69809674      -0.03884338       1.18297049 
Ti       7.74660181       7.98098280       8.26997918      -6.69003541      -1.52973677       1.26428307      47.86700000       1.17585063       0.64336781      -0.30181204       1.17585063       0.64336781      -0.30181204 
