53
Lattice="9.787706024992827 1.5111959773950004e-32 4.0392805617045097e-38 -1.5111959773950004e-32 9.787706024992827 7.646795577667676e-39 -3.09513434195661e-38 -3.558886819685004e-38 9.787706024992827" Properties=species:S:1:pos:R:3:momenta:R:3:masses:R:1:force:R:3:forces:R:3 energy=-307.17194915 config_type=HMD_bcc_vac pbc="T T T"
Ti       1.31108179       1.31518297       1.94275571      -4.16420783       3.09734490       1.94888186      47.86700000       0.64928461       1.17453548      -0.45579205       0.64928461       1.17453548      -0.45579205 
Ti      -0.11444793      -0.24632737       3.06891045       0.73061083       0.80470162       1.09170535      47.86700000       1.04737896      -0.10875275       0.31715842       1.04737896      -0.10875275       0.31715842 
Ti       1.67123538       1.71120351       4.65944161       3.13593780       1.38138942      -1.55640806      47.86700000       0.50199131       0.60667061       0.27076974       0.50199131       0.60667061       0.27076974 
Ti       0.65040899      -0.50409600       5.94228970       4.42077671      -2.86407262      -5.03613946      47.86700000       1.05303040       0.63773303      -0.27445204       1.05303040       0.63773303      -0.27445204 
Ti       0.13818434       0.42154513       9.55994799      -1.06274187      -1.03539897      -0.83215466      47.86700000      -0.00587355      -1.67904267       1.49720585      -0.00587355      -1.67904267       1.49720585 
Ti      -0.17149356       3.06601399       0.02112388       3.34599499      -4.98386283      -0.67007108      47.86700000       0.83465183       0.19944212       0.19040469       0.83465183       0.19944212       0.19040469 
Ti       1.35652165       5.05216166       1.81520282      -0.36532284       0.03935474      -3.52449287      47.86700000       0.52866752       0.34815472      -0.57640592       0.52866752       0.34815472      -0.57640592 
Ti      -0.22862674       3.42412579       3.20486802       2.21736674       2.13617401      -0.29624407      47.86700000      -0.13849236      -0.26419377      -0.04993037      -0.13849236      -0.26419377      -0.04993037 
Ti       1.80502737       4.67726897       4.73562570       0.66064429       0.35641742       3.21728601      47.86700000      -0.79706605       0.40263138      -0.16895238      -0.79706605       0.40263138      -0.16895238 
Ti       0.09342730       3.63200020       6.11702787      -0.90815514      -0.53769288      -2.80453480      47.86700000       0.61335636      -1.14689953       0.80358934       0.61335636      -1.14689953       0.80358934 
Ti       1.63518193       4.74933525       8.36315201      -2.97301386       0.45227356       1.40617444      47.86700000       0.65754537      -0.19762064       0.77880062       0.65754537      -0.19762064       0.77880062 
Ti       0.11581521       6.29567937      -0.05599999       0.48859981       2.07222151       0.46182590      47.86700000      -0.48655344       0.28408495       0.10579297      -0.48655344       0.28408495       0.10579297 
Ti       1.94698979       8.24602539       1.41378612      -2.03505810      -0.23658432      -0.49062858      47.86700000      -1.17685595      -0.04967471       0.27049605      -1.17685595      -0.04967471       0.27049605 
Ti      -0.10149467       6.88609218       3.44865550       4.10075311       5.19802993       0.19295690      47.86700000       1.16411292      -0.72827040      -0.80280573       1.16411292      -0.72827040      -0.80280573 
Ti       3.09635545       9.81859765       6.40776923       6.42325855      -8.34423229       2.80181823      47.86700000       1.06738690      -0.34635527      -0.13446910       1.06738690      -0.34635527      -0.13446910 
Ti       0.07584676       6.55867240       6.86247961       2.21079838      -2.05325563      -2.39956156      47.86700000       0.68277237      -0.44193993      -0.73214200       0.68277237      -0.44193993      -0.73214200 
Ti       1.42832410       8.37639904       8.08683297      -0.87286685       3.40563006       0.24939157      47.86700000       2.02819713      -0.69632192       1.22996260       2.02819713      -0.69632192       1.22996260 
Ti       3.21047168       0.15692158       0.10188803       0.07017274       1.32627326       2.13805298      47.86700000       0.12923523      -0.34279937      -0.12633514       0.12923523      -0.34279937      -0.12633514 
Ti       5.18714353       1.59441770       1.26738417       0.32487367      -3.73603743       0.01181259      47.86700000       0.43456317      -0.23217105      -0.06377886       0.43456317      -0.23217105      -0.06377886 
Ti       3.57215961       0.19309560       3.06308710      -0.11798061       0.90632997      -1.01430066      47.86700000      -0.67197448       0.39789318       0.81549044      -0.67197448       0.39789318       0.81549044 
Ti       5.08314344       1.71178569       4.98800418      -0.63129678       2.25378147      -0.70696150      47.86700000      -1.16583779       0.03916843       0.06785595      -1.16583779       0.03916843       0.06785595 
Ti       1.24268412       1.44981263       7.87113594      -2.29295821      -0.13882114       0.22866725      47.86700000       1.63295144       1.76220878      -1.08078879       1.63295144       1.76220878      -1.08078879 
Ti       4.67818059       1.57311116       8.09213419      -3.99137061      -4.46937217       4.86788133      47.86700000       1.06981994      -0.40922707      -0.14251728       1.06981994      -0.40922707      -0.14251728 
Ti       3.12176490       3.28932151      -0.30876306      -3.76249163      -0.70625319      -1.97486713      47.86700000      -0.57796804       0.26176061       0.89369764      -0.57796804       0.26176061       0.89369764 
Ti       5.11499738       4.96574116       1.36404681       2.99648635      -0.65936939       2.51921780      47.86700000      -0.07177034      -1.16375962       0.14687696      -0.07177034      -1.16375962       0.14687696 
Ti       3.28199957       3.27245789       2.52896234       1.53487491      -0.99654643      -2.04000766      47.86700000      -0.55490848      -0.62745908       0.62717658      -0.55490848      -0.62745908       0.62717658 
Ti       4.26937187       4.58404844       4.52560090      -4.04215465       4.51614969      -1.73200608      47.86700000       1.91536216       0.74680876       0.08159337       1.91536216       0.74680876       0.08159337 
Ti       3.36466120       3.39986903       6.81727785       0.77457420       2.63089454      -4.54355037      47.86700000      -1.47603575      -1.09317316      -1.65432153      -1.47603575      -1.09317316      -1.65432153 
Ti       5.08585519       4.57765489       7.73163903      -0.28930743      -3.90795945      -0.69622685      47.86700000       0.14073412       1.15055586       1.13220972       0.14073412       1.15055586       1.13220972 
Ti       3.49361200       6.46807932       0.27710130       0.54558613       1.58164160      -2.08990342      47.86700000      -0.31103955      -0.59213333      -0.97376178      -0.31103955      -0.59213333      -0.97376178 
Ti       5.05103658       8.11100874       2.01947454       1.89067028      -0.28443517       2.00873556      47.86700000      -0.00700541      -0.55506941      -1.12873775      -0.00700541      -0.55506941      -1.12873775 
Ti       2.91472797       7.03541387       3.82270307      -1.08125617      -0.54981964      -3.77166563      47.86700000      -1.54270377      -0.42018614      -1.34185020      -1.54270377      -0.42018614      -1.34185020 
Ti       4.61559803       8.04260030       4.91685189      -3.42418650      -2.53494146       6.56757340      47.86700000       1.91321018       0.95432644       1.14365727       1.91321018       0.95432644       1.14365727 
Ti       3.19171909       6.39779898       6.62528282      -6.10402974       1.05638467       0.36615580      47.86700000      -0.58839807       0.63226488      -0.03340589      -0.58839807       0.63226488      -0.03340589 
Ti       4.82632695       7.81229389       7.95963979       3.08774669      -3.09696000      -0.45929864      47.86700000      -0.32968148       0.76673854      -0.13324268      -0.32968148       0.76673854      -0.13324268 
Ti       6.61940663      -0.44612603      -0.41690262      -1.10734896      -3.25185917       3.33279656      47.86700000      -0.57327562       1.07082217       0.43966966      -0.57327562       1.07082217       0.43966966 
Ti       8.23085295       1.11908136       1.55208750       0.06332605      -1.65042681       2.80009681      47.86700000      -1.33014697       0.90034798       0.09845915      -1.33014697       0.90034798       0.09845915 
Ti       6.50113158      -0.12638116       3.50208493       2.67678298       0.98279514       0.24868968      47.86700000       0.73163094      -0.13882994      -0.13533266       0.73163094      -0.13882994      -0.13533266 
Ti       8.17818303       1.72972957       4.61789221       0.12281628       0.88373290       4.44362961      47.86700000       0.39595683      -0.91882264       0.51562821       0.39595683      -0.91882264       0.51562821 
Ti       6.56313368       0.06651389       6.53600784      -2.10669994      -1.12474468      -2.45283414      47.86700000      -0.72117149      -0.63924308      -0.10377832      -0.72117149      -0.63924308      -0.10377832 
Ti       8.44071315       1.47912819       7.61870316       1.49900150       0.38322795      -5.70045342      47.86700000      -0.36760798       0.06301887      -0.09904877      -0.36760798       0.06301887      -0.09904877 
Ti       6.76438785       3.01765189      -0.55711149      -0.81072515       0.11186704       2.91146178      47.86700000      -0.02406788      -0.42695853       0.93815637      -0.02406788      -0.42695853       0.93815637 
Ti       8.07501482       4.70794890       1.47539945      -3.49744963       1.65862884      -1.91310073      47.86700000      -0.40680610       0.84857937       0.53536513      -0.40680610       0.84857937       0.53536513 
Ti       6.78429958       2.94905602       3.24776411       3.12138755      -1.46674750       1.47968995      47.86700000      -0.63884742       0.64449160      -0.83240397      -0.63884742       0.64449160      -0.83240397 
Ti       8.30676954       5.46935351       4.97677014      -1.06452420       1.88415378       1.44756445      47.86700000      -0.68412027       0.28582404      -0.80653460      -0.68412027       0.28582404      -0.80653460 
Ti       6.73899620       3.59050395       5.81811493       2.98404633       0.04127068       2.27894650      47.86700000      -1.06401234      -0.67146001       0.73917877      -1.06401234      -0.67146001       0.73917877 
Ti       8.32514015       4.26349128       7.74327411       0.63275675       3.65857169       0.14393059      47.86700000       0.25562964       1.79489698       0.49901726       0.25562964       1.79489698       0.49901726 
Ti       6.54051113       6.39588793      -0.07559169      -1.32672450       2.66856714       1.31329305      47.86700000       0.13512589      -0.12942403      -0.83960812       0.13512589      -0.12942403      -0.83960812 
Ti       8.10295194       8.01193067       1.47117286      -1.42777165      -1.06630189       3.22931043      47.86700000      -0.17119511      -0.06800632       0.51300849      -0.17119511      -0.06800632       0.51300849 
Ti       6.08002179       6.51691549       3.36216276      -1.98310356      -1.31086832      -3.61817708      47.86700000       1.07756305       0.13773004      -0.01746411       1.07756305       0.13773004      -0.01746411 
Ti       8.49551130       8.36667206       5.29125450       0.59117117       0.63017181      -2.00715980      47.86700000      -2.84250229      -0.38364199      -1.02770502      -2.84250229      -0.38364199      -1.02770502 
Ti       6.84519441       6.57689817       6.44639606       5.25506035       5.50669290       2.15639840      47.86700000      -0.46498314      -0.49640255       0.02654546      -0.46498314      -0.49640255       0.02654546 
Ti       8.61737497       8.41981728       8.35658673      -4.46332872      -0.61810883      -3.53319651      47.86700000      -1.46925712      -1.14284991      -0.94220166      -1.46925712      -1.14284991      -0.94220166 
