54
Lattice="9.787706024992827 1.5111959773950004e-32 4.0392805617045097e-38 -1.5111959773950004e-32 9.787706024992827 7.646795577667676e-39 -3.09513434195661e-38 -3.558886819685004e-38 19.575412049985655" Properties=species:S:1:pos:R:3:momenta:R:3:masses:R:1:force:R:3:forces:R:3 energy=-301.711832532 config_type=HMD_bcc_surf pbc="T T T"
Ti      -0.11051887      -0.04483721       0.03736907      -2.43294896      -0.99852304       0.62615299      47.86700000       0.56526787       0.22865045      -0.65944706       0.56526787       0.22865045      -0.65944706 
Ti       1.60456530       1.55443154       1.57689592      -0.77036444      -1.82015369      -1.68556922      47.86700000      -0.17283513       0.24417584       0.14042769      -0.17283513       0.24417584       0.14042769 
Ti       0.10763448      -0.09217578       3.37373344       2.83408396      -2.35216204       3.10177903      47.86700000      -0.26062660       0.63832694      -0.16140693      -0.26062660       0.63832694      -0.16140693 
Ti       1.91907311       1.57702010       4.99430591       7.14830039      -1.10464415       2.55231892      47.86700000      -0.79397041       0.43803138      -0.11202417      -0.79397041       0.43803138      -0.11202417 
Ti       0.14573745      -0.03213265       6.46409516       3.20310988      -0.70136335      -1.19050456      47.86700000      -0.87472313       0.26519114       0.87061172      -0.87472313       0.26519114       0.87061172 
Ti       1.73514563       1.49478586       8.15670960       2.72265834      -3.40852099      -0.04998122      47.86700000       0.14651862       0.34701202      -0.39779377       0.14651862       0.34701202      -0.39779377 
Ti       0.10843540       3.18717457       0.00126196       2.55532230      -1.77038786       0.01058724      47.86700000      -0.60136014       0.17714664      -0.01679298      -0.60136014       0.17714664      -0.01679298 
Ti       1.70750723       4.81412048       1.49586486       1.35453039      -1.70077788      -3.73632192      47.86700000      -0.94496998       0.29796690       0.35407980      -0.94496998       0.29796690       0.35407980 
Ti       0.09160457       3.29835349       3.46620917       2.49256260       1.03770848       5.34933276      47.86700000      -0.15424164      -0.09087427       0.02429288      -0.15424164      -0.09087427       0.02429288 
Ti       1.70183532       5.01144652       4.91472301       1.52225295       2.90022479       0.75540058      47.86700000      -0.51111261      -0.50083711       0.07002892      -0.51111261      -0.50083711       0.07002892 
Ti      -0.06260222       3.14107127       6.66335918      -1.49690126      -2.98390682       3.58749631      47.86700000       0.13932570       0.35693165      -0.31589304       0.13932570       0.35693165      -0.31589304 
Ti       1.70613184       5.14161704       8.23323802       1.45417686       6.24069117       2.12306709      47.86700000      -0.70865734      -1.01357768      -0.11327494      -0.70865734      -1.01357768      -0.11327494 
Ti      -0.17017510       6.55413956      -0.00875402      -3.89667359       0.65619374      -0.43756440      47.86700000       0.90323719      -0.23000516      -0.38934601       0.90323719      -0.23000516      -0.38934601 
Ti       1.77942541       8.19167636       1.48134795       2.84562798       0.85444432      -3.98885172      47.86700000      -0.99425800      -0.31281170       0.52584979      -0.99425800      -0.31281170       0.52584979 
Ti      -0.04115530       6.63729649       3.44772403      -1.03929784       2.91437621       4.39332590      47.86700000       0.02461536      -0.66306802      -1.07748184       0.02461536      -0.66306802      -1.07748184 
Ti       1.52661087       8.04802867       4.77437121      -2.53940671      -3.04058524      -2.76847028      47.86700000       0.53214039      -0.20982954       0.71494088       0.53214039      -0.20982954       0.71494088 
Ti      -0.11973667       6.74212484       6.71458616      -2.91991410       5.01023697       4.60826593      47.86700000       0.23900099      -0.76285777      -1.05921267       0.23900099      -0.76285777      -1.05921267 
Ti       1.50091958       7.91732934       8.18792949      -3.06251800      -5.95154776       0.99137907      47.86700000       0.54659247       1.28842094       0.35683919       0.54659247       1.28842094       0.35683919 
Ti       3.24538974       0.00264571       0.05033760       0.08366191       0.29669064       1.08853514      47.86700000       0.59899088       0.31275727      -0.32440352       0.59899088       0.31275727      -0.32440352 
Ti       5.02211004       1.68097957       1.73032423       3.13676564       1.05703049       1.81158949      47.86700000      -0.51216628      -0.53054510      -1.40130278      -0.51216628      -0.53054510      -1.40130278 
Ti       3.08976989      -0.06688452       3.28871955      -3.99724240      -1.75110473       0.80586750      47.86700000       1.08458780       0.23674361       0.13507728       1.08458780       0.23674361       0.13507728 
Ti       4.97991262       1.81322964       4.53040592       2.09307610       4.51482191      -8.90901806      47.86700000      -0.27155960      -1.10924079       1.44657630      -0.27155960      -1.10924079       1.44657630 
Ti       3.39966767      -0.08912056       6.44868782       3.25077717      -2.64187708      -1.80438284      47.86700000      -0.47503449      -0.28656288       0.43391942      -0.47503449      -0.28656288       0.43391942 
Ti       4.89863652       1.55508645       7.99060800       0.07867291      -1.91823724      -3.97516321      47.86700000      -0.21488356       0.23953073       0.49528659      -0.21488356       0.23953073       0.49528659 
Ti       3.27143486       3.27905113       0.02978697       0.52119763       0.09408382       0.40872759      47.86700000       0.13652449      -0.47228552      -0.28611711       0.13652449      -0.47228552      -0.28611711 
Ti       4.89415230       4.89617979       1.54258401       0.17355477       0.44266708      -2.74049061      47.86700000       0.10849076       0.78113184      -0.44813749       0.10849076       0.78113184      -0.44813749 
Ti       3.29489066       3.21277819       3.17682912       0.47202032      -1.00655838      -2.30815304      47.86700000      -0.80404461       0.44861397      -0.02296835      -0.80404461       0.44861397      -0.02296835 
Ti       4.64259624       4.86618314       4.77677848      -5.85860987      -0.56174405      -3.21469446      47.86700000       1.30070416       0.40622322      -0.18989108       1.30070416       0.40622322      -0.18989108 
Ti       3.37344401       3.52059269       6.50239830       2.61020379       6.03958800      -0.00048650      47.86700000      -0.56386453      -0.90647148       0.89427901      -0.56386453      -0.90647148       0.89427901 
Ti       4.79961924       4.58270886       8.43605513      -2.19071901      -7.84351924       7.35775068      47.86700000       0.67352134       0.75390790      -0.65827073       0.67352134       0.75390790      -0.65827073 
Ti       3.10391258       6.66126807       0.00215594      -3.66885234       3.22329458      -0.19243703      47.86700000       0.83052372      -0.47167635      -0.28907477       0.83052372      -0.47167635      -0.28907477 
Ti       4.94230721       8.15653084       1.63706217       0.96627465       0.01091078      -0.07518056      47.86700000      -0.26031445       0.05457190      -0.11072295      -0.26031445       0.05457190      -0.11072295 
Ti       3.13826954       6.45350188       3.20159859      -3.07580111      -1.61298188      -1.58240941      47.86700000       0.54329237       0.51480693      -0.21165693       0.54329237       0.51480693      -0.21165693 
Ti       5.04594831       8.07472173       4.96325764       3.53959305      -2.33875011       1.11447575      47.86700000      -0.24783605       0.07931053      -1.31979623      -0.24783605       0.07931053      -1.31979623 
Ti       3.23775856       6.41471702       6.63921164      -0.15049461      -2.50617540       3.22046309      47.86700000       0.52596483      -0.01032255       0.18776430       0.52596483      -0.01032255       0.18776430 
Ti       4.69675867       8.12387379       8.28821392      -4.89858495      -1.00074101       3.45106699      47.86700000       0.49495277      -0.23452681      -0.28852533       0.49495277      -0.23452681      -0.28852533 
Ti       6.45160702      -0.05669360      -0.09685226      -1.83674770      -1.10038292      -2.66031579      47.86700000      -0.02694834       0.54356980       0.42325633      -0.02694834       0.54356980       0.42325633 
Ti       8.32889178       1.51500131       1.75475964       4.39264750      -2.42987606       2.55712023      47.86700000      -0.32646415       1.06156458      -1.02176100      -0.32646415       1.06156458      -1.02176100 
Ti       6.71987258       0.06937104       3.17097809       4.71752998       1.35223886      -2.24826989      47.86700000      -0.73951797      -0.58302490       0.39854136      -0.73951797      -0.58302490       0.39854136 
Ti       7.94529176       1.72054710       4.74280819      -5.04480023       2.00696849      -3.56737951      47.86700000       1.08378426      -0.43054245       0.38762953       1.08378426      -0.43054245       0.38762953 
Ti       6.34962579      -0.18482176       6.45242613      -4.32087095      -4.37720494      -1.37614827      47.86700000       0.14938360       0.93114040       0.67369917       0.14938360       0.93114040       0.67369917 
Ti       8.17619154       1.56934753       8.40152826       0.53402356      -1.81622215       6.13706803      47.86700000      -0.08205539      -0.34329140      -0.98717273      -0.08205539      -0.34329140      -0.98717273 
Ti       6.49169157       3.24053826      -0.10435430      -0.45235798      -0.45234414      -2.61952423      47.86700000       0.65446518       0.11149445       0.78654129       0.65446518       0.11149445       0.78654129 
Ti       8.31681061       5.04969724       1.58114231       3.93714803       3.34155532      -1.56854833      47.86700000      -0.13093062      -0.65887126      -0.34741926      -0.13093062      -0.65887126      -0.34741926 
Ti       6.52386716       3.35874790       3.20173892       0.15144319       2.91553761      -1.93957122      47.86700000       0.38425397       0.38373135      -0.56661091       0.38425397       0.38373135      -0.56661091 
Ti       7.86354487       5.06391190       4.89786128      -7.05715475       4.19480397       0.29455732      47.86700000       1.30879947      -0.63752950       0.36404887       1.30879947      -0.63752950       0.36404887 
Ti       6.55722040       3.11395938       6.52010316       0.80726699      -3.23912576       0.50556732      47.86700000       0.20390365       0.83551228       0.81255273       0.20390365       0.83551228       0.81255273 
Ti       8.27834617       5.09585555       8.15772491       2.86582297       4.76589143       0.19223372      47.86700000      -0.72602757      -1.05949502       0.28617446      -0.72602757      -1.05949502       0.28617446 
Ti       6.58060594       6.67688056      -0.01776569       1.41210274       3.65893476      -0.66949496      47.86700000      -0.45185282      -0.66877113      -0.19223944      -0.45185282      -0.66877113      -0.19223944 
Ti       8.21009313       8.27568583       1.46933570       1.45642039       2.89268405      -4.29335845      47.86700000      -0.08170242      -0.01741733       0.51169007      -0.08170242      -0.01741733       0.51169007 
Ti       6.77455583       6.68257528       3.21932694       5.96987195       3.87976217      -1.23655064      47.86700000      -1.16303618      -0.51284551      -0.15213756      -1.16303618      -0.51284551      -0.15213756 
Ti       8.02175541       8.17239700       4.87454049      -3.35004568       0.51846331      -0.11641475      47.86700000       0.31791930       0.16373373       0.50751360       0.31791930       0.16373373       0.50751360 
Ti       6.40589566       6.47582291       6.56442512      -3.45483506      -1.45538646       1.87678143      47.86700000      -0.44176213      -0.15159321       1.22096462      -0.44176213      -0.15159321       1.22096462 
Ti       8.02050163       8.10504820       8.22367353      -3.78755931      -0.93499861       2.03434501      47.86700000       0.03999501       0.72867604       0.09829577       0.03999501       0.72867604       0.09829577 
