53
Lattice="8.870728496683665 -2.8425469926068123e-15 1.1324443957325822e-38 -4.43536424834183 7.682276228202598 7.663162776850163e-25 5.474060799563254e-39 -1.4310661229599006e-24 14.346354863571726" Properties=species:S:1:pos:R:3:momenta:R:3:masses:R:1:force:R:3:forces:R:3 energy=-312.165621839 config_type=HMD_hcp_vac pbc="T T T"
Ti       0.01985001       1.80087170       2.39070711      -0.58171225       1.14896151      -0.32677675      47.86700000      -0.72932645       0.02792253       0.04743703      -0.72932645       0.02792253       0.04743703 
Ti       0.10019733       0.01599186       4.88459533       0.77854320       0.66443063       0.98569087      47.86700000      -0.50085111       0.61501416      -0.49958751      -0.50085111       0.61501416      -0.49958751 
Ti       0.19568775       1.93293882       7.08018461       2.66005365       3.28450596      -1.03079876      47.86700000      -0.03914295      -0.28220787       0.50073713      -0.03914295      -0.28220787       0.50073713 
Ti      -0.04353124      -0.00075209       9.69894687      -0.45887264       0.14043921       1.16536942      47.86700000       0.32205060       0.14931455      -1.04440645       0.32205060       0.14931455      -1.04440645 
Ti      -0.08697563       1.55365230      11.88599247      -0.48069727      -2.26035462       0.08327054      47.86700000       0.90226030       0.88148128       0.61285354       0.90226030       0.88148128       0.61285354 
Ti      -1.36534235       2.54992755       0.20385339       2.25285110      -1.44011345       2.56432387      47.86700000      -0.46553186      -0.88049266      -0.98636087      -0.46553186      -0.88049266      -0.98636087 
Ti      -1.68226866       4.45732742       2.11614876      -2.69918995       3.21100403      -3.54883186      47.86700000       0.51454884       0.15925319       1.49664022       0.51454884       0.15925319       1.49664022 
Ti      -1.45303440       2.67906029       4.83591635       0.76081723       2.39821081       0.13990884      47.86700000       0.05022725       0.67287347      -0.74950595       0.05022725       0.67287347      -0.74950595 
Ti      -1.48216411       4.38022746       7.39629745       0.29501801       1.55980085       2.62774865      47.86700000       0.11066403      -0.57882588      -1.32611977       0.11066403      -0.57882588      -1.32611977 
Ti      -1.36964009       2.70464623       9.63429390       2.68628538       2.36063882       0.83222686      47.86700000       0.35178729       0.17099082      -0.05486907       0.35178729       0.17099082      -0.05486907 
Ti      -1.63127032       4.23473725      12.11279624      -1.79781679      -0.19756885       2.47604054      47.86700000       0.77190350       0.30099893      -0.48388524       0.77190350       0.30099893      -0.48388524 
Ti      -3.06752163       4.88681784       0.22301236      -1.13950803      -2.40631049       3.11337499      47.86700000       0.99197995       0.76417397      -0.47177030       0.99197995       0.76417397      -0.47177030 
Ti      -3.12035826       7.05297340       2.32994710      -3.01581333       3.10027832      -1.67231285      47.86700000       0.20438644      -0.92403036      -0.05696144       0.20438644      -0.92403036      -0.05696144 
Ti      -3.28488971       5.18994043       4.78943892      -4.26442964       1.24002792      -0.06792782      47.86700000       1.39878604       0.10113053      -0.08370700       1.39878604       0.10113053      -0.08370700 
Ti      -2.86998782       6.75883771       7.19635009       1.04754034      -1.11691292       0.49808772      47.86700000      -0.25311228       0.23992080       0.13322439      -0.25311228       0.23992080       0.13322439 
Ti      -3.09572664       5.11876979       9.46659172      -1.83880288       0.46498001      -0.91733522      47.86700000       0.30478268       0.32425157       1.01940952       0.30478268       0.32425157       1.01940952 
Ti      -3.24643113       6.67249551      12.10501905      -4.14983969      -1.88089717       3.38965506      47.86700000       1.30265335       0.45569747      -0.03273958       1.30265335       0.45569747      -0.03273958 
Ti       2.77900523       0.08425490      -0.00339313      -3.38731932       0.05542851      -0.12435911      47.86700000       0.75312638      -0.94214236       0.15311204       0.75312638      -0.94214236       0.15311204 
Ti       2.88509093       1.80548969       2.28254822      -1.62419265       0.81471352      -1.66729116      47.86700000      -0.13079243      -0.64850470       0.16838271      -0.13079243      -0.64850470       0.16838271 
Ti       2.87597401       0.05818635       4.73693903      -0.91745416       0.22300039      -0.63051476      47.86700000       0.47483073      -0.56772260      -0.00754724       0.47483073      -0.56772260      -0.00754724 
Ti       2.95204357       1.43170151       7.08580937       0.68404488      -4.06546669      -1.14014618      47.86700000       0.63934491       0.38756290       0.32157614       0.63934491       0.38756290       0.32157614 
Ti       2.96053146      -0.04093520       9.70561877      -0.51939971      -0.82033010       2.29115568      47.86700000      -0.69802643       0.04092778      -0.14610073      -0.69802643       0.04092778      -0.14610073 
Ti       3.24747544       1.63053865      11.99130765       3.28208333      -1.09956167      -0.05095832      47.86700000      -1.46956498       0.27868592      -0.93558227      -1.46956498       0.27868592      -0.93558227 
Ti       1.62547258       2.39228095      -0.17387728       0.86748493      -2.26323613      -3.26257002      47.86700000      -0.98277546       1.18079650      -0.16167464      -0.98277546       1.18079650      -0.16167464 
Ti       1.60930465       4.22719575       2.34417526       1.23375428       0.00411657      -1.13862061      47.86700000      -0.95855940       0.47697311      -0.33934408      -0.95855940       0.47697311      -0.33934408 
Ti       1.63211530       2.53920268       4.67414558       1.64258116      -0.17915020      -1.63018196      47.86700000      -0.73420616       0.22450040       0.32493167      -0.73420616       0.22450040       0.32493167 
Ti       1.55838828       3.84943927       7.22174034       0.49615727      -5.77829060       0.88504473      47.86700000      -1.25554859       0.80396663      -0.20630422      -1.25554859       0.80396663      -0.20630422 
Ti       1.61579006       2.47067372       9.50681732       1.92568890      -1.42165208      -0.15391970      47.86700000      -0.00284184       0.10907729       1.03110337      -0.00284184       0.10907729       1.03110337 
Ti       1.45797001       4.55078022      11.93356168      -0.54434062       3.23615089      -0.02626926      47.86700000      -0.07676277      -1.93319192       0.49538643      -0.07676277      -1.93319192       0.49538643 
Ti       0.00652665       5.23430716      -0.09112523       0.00871027       1.28587040      -0.96169838      47.86700000      -0.26339479      -0.56740748       0.54809094      -0.26339479      -0.56740748       0.54809094 
Ti       0.12274267       6.92871647       2.62646907       1.28376527       0.86926279       2.74658698      47.86700000      -0.94144952      -0.71272767      -1.40255446      -0.94144952      -0.71272767      -1.40255446 
Ti      -0.03031267       5.29203359       4.78086887      -0.51296019       2.24656869       0.69196245      47.86700000       0.02704412      -0.75249199       0.43779133       0.02704412      -0.75249199       0.43779133 
Ti      -0.00729131       6.72698921       7.43694908       0.89274629      -1.71464523       3.50768045      47.86700000       1.15313306       0.40747560      -1.04651496       1.15313306       0.40747560      -1.04651496 
Ti      -0.06329003       5.22790692       9.68466789      -0.54611834       1.37656511       1.89409967      47.86700000       0.38353926      -0.40885498      -0.04712535       0.38353926      -0.40885498      -0.04712535 
Ti      -0.03375948       6.92946089      11.96866232      -0.66530232       1.37464038       0.33822530      47.86700000      -0.25872336      -0.29333081       0.21493149      -0.25872336      -0.29333081       0.21493149 
Ti       5.80821037      -0.28103623      -0.01136959      -0.62779635      -3.89934559      -0.50863436      47.86700000       0.35588560       1.24565130      -0.19086206       0.35588560       1.24565130      -0.19086206 
Ti       5.52902216       1.43824153       2.15703203      -4.44505309      -4.22021380      -3.37631665      47.86700000       1.99730397       0.43843336       0.43100172       1.99730397       0.43843336       0.43100172 
Ti       5.94861619       0.28162435       4.64523324       1.03045426       3.65479685      -1.42830846      47.86700000       0.13252601      -0.86668301       1.28748417       0.13252601      -0.86668301       1.28748417 
Ti       6.10152457       1.76892066       7.18338340       3.27457180       0.75764604      -0.32146538      47.86700000       0.22412178      -0.25919329      -0.54590743       0.22412178      -0.25919329      -0.54590743 
Ti       5.91862759       0.42042931       9.52128519       0.32131883       5.29404095      -0.84198214      47.86700000       0.05901527      -1.50345136      -0.32527009       0.05901527      -1.50345136      -0.32527009 
Ti       6.02736016       1.76914567      11.74544456       2.03553138       0.50405830      -2.18824444      47.86700000      -0.20088170      -0.02521664       1.26362591      -0.20088170      -0.02521664       1.26362591 
Ti       4.32971233       2.50147147      -0.10328821      -1.10135397      -1.05350097      -2.11697107      47.86700000       0.32705617      -0.19276169      -0.23238714       0.32705617      -0.19276169      -0.23238714 
Ti       4.51487038       4.04530169       2.35403198       0.74101386      -2.36956870       0.10681379      47.86700000      -0.77714466       1.01211608       0.72705006      -0.77714466       1.01211608       0.72705006 
Ti       4.55212832       2.61622610       4.89943038       1.70518853       0.61800789       1.73097076      47.86700000      -0.42416968      -0.29168469      -0.46619754      -0.42416968      -0.29168469      -0.46619754 
Ti       4.37500873       4.14747527       7.20757172      -0.82608880      -1.38696450       0.45551349      47.86700000       0.22602481       0.56665043      -0.20109549       0.22602481       0.56665043      -0.20109549 
Ti       4.65971752       2.47290539       9.28282764       2.84197309      -1.31919977      -4.08966538      47.86700000      -0.78839645      -0.05534691       0.94469917      -0.78839645      -0.05534691       0.94469917 
Ti       4.45030106       4.19892718      11.84796045      -0.26787291      -0.90652822      -1.40850775      47.86700000      -0.54130006      -0.19029943       0.29837133      -0.54130006      -0.19029943       0.29837133 
Ti       3.12397892       5.24527229       0.01869023       2.56326810       2.47938407       0.19598071      47.86700000      -0.12483049      -0.42062685       0.03199199      -0.12483049      -0.42062685       0.03199199 
Ti       2.95467551       6.74846335       2.54866799       0.54117913      -0.87366148       2.04711211      47.86700000       0.45105918       0.18309968      -0.31994340       0.45105918       0.18309968      -0.31994340 
Ti       2.84803151       4.96316549       4.93279323      -1.96959676      -1.43467544       2.03430118      47.86700000      -0.09131050       0.80030354      -0.68582574      -0.09131050       0.80030354      -0.68582574 
Ti       3.10144428       6.88562605       7.01818385       1.72949726       0.75090252      -1.71901941      47.86700000      -0.79225981      -0.41475936       0.96414391      -0.79225981      -0.41475936       0.96414391 
Ti       2.90618583       5.05014715       9.65555263      -1.19224997      -0.61897844       0.67178471      47.86700000      -0.22423592       0.52724070      -0.83890645      -0.22423592       0.52724070      -0.83890645 
Ti       2.97677060       6.77563672      11.82757717      -0.00834010      -0.39130482      -1.12330159      47.86700000      -0.70490187       0.16547002       0.43508025      -0.70490187       0.16547002       0.43508025 
