54
Lattice="8.870728496683665 -2.8425469926068123e-15 1.1324443957325822e-38 -4.43536424834183 7.682276228202598 7.663162776850163e-25 5.474060799563254e-39 -1.4310661229599006e-24 14.346354863571726" Properties=species:S:1:pos:R:3:momenta:R:3:masses:R:1:force:R:3:forces:R:3 energy=-308.999257348 config_type=HMD_hcp pbc="T T T"
Ti      -2.36588057      -0.43989794       0.38020831      -3.24488180      -2.80844185       0.13659608      47.86700000       0.08632937       0.97612297      -0.11049181       0.08632937       0.97612297      -0.11049181 
Ti       0.60857665       0.94028894       2.44105658      -0.06862458       5.19178878       0.91185918      47.86700000       1.54212323       0.84090085      -0.70275165       1.54212323       0.84090085      -0.70275165 
Ti      -1.06610076       0.48051376       4.64919074       3.72150449      -2.23214876       4.36534718      47.86700000       0.61122252      -0.48477864       0.37581168       0.61122252      -0.48477864       0.37581168 
Ti       0.58237891       0.49380778       6.67318508       6.72534325      -2.53430176       1.95585307      47.86700000       0.44952135       1.06527760       0.16045719       0.44952135       1.06527760       0.16045719 
Ti       1.11929705      -0.39920887       9.32717416       1.35812148      -0.74512820       3.10174512      47.86700000      -1.06184904       0.24302847       0.99115401      -1.06184904       0.24302847       0.99115401 
Ti       0.35055275       2.96382086      11.83265855      -5.12481180       6.11420813       4.11794224      47.86700000       0.30246627       0.00637117       0.66311735       0.30246627       0.00637117       0.66311735 
Ti      -4.26181742       2.43263572       0.11952239       3.56882527      -6.21655738       2.38825300      47.86700000       1.30145620      -0.06762337       0.45990364       1.30145620      -0.06762337       0.45990364 
Ti      -0.21996278       3.54754791       1.92887679      -4.09240077      -8.61830817      -0.24947836      47.86700000      -0.09252198       0.42927092       0.63397709      -0.09252198       0.42927092       0.63397709 
Ti      -1.95478108       3.28760356       4.76359998       2.26364594      -1.98321843       0.47247175      47.86700000       0.42782973       0.06248920       0.38822808       0.42782973       0.06248920       0.38822808 
Ti      -0.52275610       3.38859182       6.80708706      -5.02702997       1.03785203      -4.02690244      47.86700000      -1.09521664       0.35628788       0.72504676      -1.09521664       0.35628788       0.72504676 
Ti      -0.87442426       2.08571831       9.38005241      -3.27124062       4.81607061      -7.89318256      47.86700000       0.85417332      -0.85460569      -0.47672864       0.85417332      -0.85460569      -0.47672864 
Ti      -1.01051639       5.63809560      12.26989921      -6.40733463       1.21098514       1.62007888      47.86700000       1.04674322       0.90581340      -1.41861204       1.04674322       0.90581340      -1.41861204 
Ti      -5.17112369       4.80831613       0.45457350      -1.44193057      -1.64316854       0.81335818      47.86700000      -0.29778432       0.81896321      -1.14361479      -0.29778432       0.81896321      -1.14361479 
Ti      -1.62802366       6.23774756       2.17378880       1.78562886       6.72257720       2.82980108      47.86700000      -0.75101180      -1.03681554      -1.42573742      -0.75101180      -1.03681554      -1.42573742 
Ti      -3.40879461       5.99581555       4.71074111       1.74859525      -2.14857337      -4.89943172      47.86700000      -4.28193989      -6.13849528       1.95640792      -4.28193989      -6.13849528       1.95640792 
Ti      -1.92350533       6.03379308       7.33268151       3.26697034       2.08841713       1.63042735      47.86700000      -0.00357513      -0.39171257      -0.64557018      -0.00357513      -0.39171257      -0.64557018 
Ti      -2.41076907       4.89708754       9.47534472      -2.91504342       3.21669301       4.14947201      47.86700000       0.14549712      -1.12315163      -0.05459960       0.14549712      -1.12315163      -0.05459960 
Ti      -2.23762389       8.06822400      11.32681581      -2.67273324       2.49267934       1.74140375      47.86700000      -0.75996769       0.76254705       0.83467466      -0.75996769       0.76254705       0.83467466 
Ti       0.64916516      -0.17152153      -0.15178704       0.28474118      -3.57747456       5.32156073      47.86700000      -0.31233943      -0.51020294      -0.60603885      -0.31233943      -0.51020294      -0.60603885 
Ti       3.97233628       1.09189380       2.72154320      -9.55481970      -7.11901727      -0.98084111      47.86700000      -0.03378047       1.19585204      -1.44126826      -0.03378047       1.19585204      -1.44126826 
Ti       2.33526196      -0.00799606       4.24016997      -3.71671268       1.96581486      -2.08808349      47.86700000       3.01001761       6.62631475       0.67280957       3.01001761       6.62631475       0.67280957 
Ti       3.46656227       0.99095897       6.89444303       1.63250297      -2.45436249       1.62710801      47.86700000       0.66623706      -0.17700258      -0.98565078       0.66623706      -0.17700258      -0.98565078 
Ti       3.94719192      -0.83934884      10.11659352       3.76413917       0.00688395      -3.19737853      47.86700000       0.13811066       0.69921536      -1.99654794       0.13811066       0.69921536      -1.99654794 
Ti       3.29996692       3.07650077      11.95007538       2.60971719      -1.79776157       3.54807243      47.86700000       0.04189441      -0.16414873       0.08253947       0.04189441      -0.16414873       0.08253947 
Ti      -1.20009082       2.51121266       0.05692253      -2.85806034      -0.45831712      -0.49564118      47.86700000       0.90971338      -0.78682363      -0.10865443       0.90971338      -0.78682363      -0.10865443 
Ti       2.83937624       3.94584982       2.49175825       2.52446245      -3.61651091       3.55562188      47.86700000      -1.31449897      -0.62526304      -0.37442541      -1.31449897      -0.62526304      -0.37442541 
Ti       1.18849159       3.11072735       4.96866056      12.13472678      -4.72089624      -4.50833629      47.86700000       0.02965434      -0.29119740      -1.35199929       0.02965434      -0.29119740      -1.35199929 
Ti       1.88454672       3.94447150       7.40309829       0.88058873       2.35852439      -0.37257222      47.86700000       0.89743400       0.68125596      -0.45706203       0.89743400       0.68125596      -0.45706203 
Ti       2.34793379       1.88157069       8.62782916      -1.53154137      -0.63419790      -4.51955921      47.86700000      -1.64625213       1.26679911       3.02606048      -1.64625213       1.26679911       3.02606048 
Ti       1.53813311       6.18431659      12.01596108       5.52044769       3.59621258      -1.37132066      47.86700000       1.42224292      -1.33925353       0.45564966       1.42224292      -1.33925353       0.45564966 
Ti      -2.34956539       4.74874186      -0.51938400       0.93703097      -6.58022286      -1.99229623      47.86700000      -1.87449599      -0.38379465       3.31458928      -1.87449599      -0.38379465       3.31458928 
Ti       1.22429346       6.63596374       2.49172794      -2.13282697      -6.67243127      -2.61850000      47.86700000       0.57536782      -0.92530787      -0.21275361       0.57536782      -0.92530787      -0.21275361 
Ti      -0.33351200       5.95458230       4.69814483       1.17319415       4.66177040       0.10181150      47.86700000      -0.20327749      -2.32896599       0.18084372      -0.20327749      -2.32896599       0.18084372 
Ti       0.84424758       6.63404779       7.11265835       1.87451508       6.20865241      -2.45357363      47.86700000      -0.17624528      -0.94847674       0.91562215      -0.17624528      -0.94847674       0.91562215 
Ti       0.44111646       4.37620445       9.84996365       1.82241621       2.79347158       0.42847990      47.86700000       0.07850616       0.32764199      -0.26453555       0.07850616       0.32764199      -0.26453555 
Ti       0.57326022       8.42385225      12.45263139       3.60263589      -1.67901839      -5.83339812      47.86700000       0.16098432       0.46518493      -0.48030508       0.16098432       0.46518493      -0.48030508 
Ti       3.34005479      -0.10381326       0.33947637      -0.89063590      -1.45640455       1.78888889      47.86700000       0.37584527      -0.58358773       0.17244924       0.37584527      -0.58358773       0.17244924 
Ti       6.91192814       1.46073881       2.46921842      -0.26262196       3.50135389      -1.68340037      47.86700000      -1.43801586       0.10569535       0.12903565      -1.43801586       0.10569535       0.12903565 
Ti       5.18752308       0.56025911       4.99754774       3.39486007       0.05632139      -1.89241544      47.86700000       1.02370444       0.13323424      -0.32107824       1.02370444       0.13323424      -0.32107824 
Ti       6.33662426       1.29956956       7.34731118       0.11850685       2.58697934       0.64844577      47.86700000       0.43771031       0.55743910      -0.28844570       0.43771031       0.55743910      -0.28844570 
Ti       6.81057177      -0.69754912       9.54689109     -11.55349073       4.96489986      -0.37851955      47.86700000      -0.12034569       1.38832543       0.20106847      -0.12034569       1.38832543       0.20106847 
Ti       6.92381607       3.09518352      11.37154548       0.89354759       4.23821395      -1.47763649      47.86700000      -0.44242948      -0.97101704       0.99031748      -0.44242948      -0.97101704       0.99031748 
Ti       2.00553433       2.32705586       0.01749428       5.64559604       1.36889096      -3.35133298      47.86700000      -1.15910427       0.36519273       0.12278072      -1.15910427       0.36519273       0.12278072 
Ti       5.35544186       3.95238492       2.69293084      -0.93429172      -2.90710185       0.58144168      47.86700000       1.22313236      -0.28843175      -1.30631075       1.22313236      -0.28843175      -1.30631075 
Ti       4.00210690       2.84476950       4.67986207      -1.68141488      -1.74190737      -1.11641442      47.86700000       0.14303008       0.23903110       1.09423411       0.14303008       0.23903110       1.09423411 
Ti       4.89511645       4.00823714       7.44664881      -4.29693176       0.45884562      -1.72996023      47.86700000       0.17642109      -1.47307975      -1.01739430       0.17642109      -1.47307975      -1.01739430 
Ti       4.86624737       1.68141465       9.67073423      -1.87771048       0.10394839      -2.09643885      47.86700000       0.72371719       1.13514945       0.04678292       0.72371719       1.13514945       0.04678292 
Ti       4.71908800       5.17631942      11.81263392      -3.99827144       2.32256944       2.92645464      47.86700000      -0.25559439       1.33900289       0.35101204      -0.25559439       1.33900289       0.35101204 
Ti       0.66622472       5.18506417       0.27150217      -0.37988275       2.46421033       2.97058444      47.86700000      -0.19609444      -1.08771751      -0.79032176      -0.19609444      -1.08771751      -0.79032176 
Ti       4.16682261       6.31718449       2.20111578       5.57462616      -4.51370590      -5.44191746      47.86700000      -0.34388699       0.12843692       0.62814488      -0.34388699       0.12843692       0.62814488 
Ti       2.55686381       5.01730565       5.05752019       2.44131088       0.75827385       0.87488513      47.86700000      -0.12950975       1.31304719      -0.07614798      -0.12950975       1.31304719      -0.07614798 
Ti       3.63387813       6.55708576       7.60844486      -2.00705328       1.87708942       4.73936370      47.86700000      -0.16171779      -0.17609283      -0.92423958      -0.16171779      -0.17609283      -0.92423958 
Ti       3.38276565       4.57344283       9.77146348      -0.29106203      -1.80005594      -2.77703594      47.86700000       0.34243935      -0.77128466      -0.04091798       0.34243935      -0.77128466      -0.04091798 
Ti       3.80250735       8.16744719      12.02317672       0.96515848       1.47503468      10.09823989      47.86700000      -0.99207016      -0.50506017      -0.55051453      -0.99207016      -0.50506017      -0.55051453 
