2
Lattice="3.132065927997705 4.8358271276640005e-33 1.292569779745443e-38 -4.8358271276640005e-33 3.132065927997705 -0.12723671003977693 -9.904429894261153e-39 -1.1388437822992012e-38 3.132065927997705" Properties=species:S:1:pos:R:3:force:R:3 energy=-11.73176107622338 config_type=FLD_bcc virial="2.878243614461728 0.11044858560569905 -0.06831699190905596 0.11044858560569905 3.2095482229847985 0.11123946132068097 -0.06831699190905596 0.11123946132068097 3.205366167974943" pbc="F F F"
Ti      -0.23262275      -0.10010263       0.06242478       0.39955424       0.23748096      -0.27806380
Ti       1.42449102       1.51070900       1.49252405      -0.39955424      -0.23748096       0.27806380
2
Lattice="3.132065927997705 4.8358271276640005e-33 1.292569779745443e-38 -4.8358271276640005e-33 3.132065927997705 -0.07442922746633586 -9.904429894261153e-39 -1.1388437822992012e-38 3.132065927997705" Properties=species:S:1:pos:R:3:force:R:3 energy=-11.705278580287294 config_type=FLD_bcc virial="3.152375243007695 0.03397878831552785 -0.0862703555825551 0.03397878831552785 2.9802509719515182 0.406986340242358 -0.0862703555825551 0.406986340242358 2.9711581042286355" pbc="F F F"
Ti       0.11542975       0.06337493       0.15983133       0.42287818       0.08474301      -0.65915237
Ti       1.83133690       1.64044290       1.58673701      -0.42287818      -0.08474301       0.65915237
2
Lattice="3.132065927997705 4.8358271276640005e-33 -0.14736659082211495 -4.8358271276640005e-33 3.132065927997705 2.4469745848536564e-39 -9.904429894261153e-39 -1.1388437822992012e-38 3.132065927997705" Properties=species:S:1:pos:R:3:force:R:3 energy=-11.633877531817198 config_type=FLD_bcc virial="3.669697489051433 0.014919939641194244 0.08231210803460648 0.014919939641194244 2.8309168935999156 0.019974312053927683 0.08231210803460648 0.019974312053927683 3.5071401067354304" pbc="F F F"
Ti       0.19805861       0.02895969      -0.13213116      -0.74917269      -0.15227950       0.85470862
Ti       1.57536952       1.57483838       1.51950472       0.74917269       0.15227950      -0.85470862
2
Lattice="3.132065927997705 4.8358271276640005e-33 1.292569779745443e-38 -4.8358271276640005e-33 3.132065927997705 2.4469745848536564e-39 -9.904429894261153e-39 -1.1388437822992012e-38 2.9659803475035784" Properties=species:S:1:pos:R:3:force:R:3 energy=-11.478148566891074 config_type=FLD_bcc virial="4.070117962164706 0.12235917005540203 -0.08662034703690766 0.12235917005540203 4.100776014391346 -0.10448702684013607 -0.08662034703690766 -0.10448702684013607 5.465899934034962" pbc="F F F"
Ti       0.03632433       0.11307747      -0.07030561       0.44597183      -0.26418407       0.66862550
Ti       1.70406029       1.62369779       1.54152040      -0.44597183       0.26418407      -0.66862550
2
Lattice="3.132065927997705 4.8358271276640005e-33 1.292569779745443e-38 -4.8358271276640005e-33 3.0787135451166936 2.4469745848536564e-39 -9.904429894261153e-39 -1.1388437822992012e-38 3.132065927997705" Properties=species:S:1:pos:R:3:force:R:3 energy=-11.58462307974232 config_type=FLD_bcc virial="3.1760034330417035 -0.05023185634785944 -0.037862741241174294 -0.05023185634785944 4.259075627239778 0.002842014903492505 -0.037862741241174294 0.002842014903492505 3.1725874084217627" pbc="F F F"
Ti      -0.01723977       0.18037883       0.10222411       0.60102949      -1.18374485       0.10563942
Ti       1.64044568       1.48359995       1.68558898      -0.60102949       1.18374485      -0.10563942
2
Lattice="3.132065927997705 -0.052362351373792526 1.292569779745443e-38 -4.8358271276640005e-33 3.132065927997705 2.4469745848536564e-39 -9.904429894261153e-39 -1.1388437822992012e-38 3.132065927997705" Properties=species:S:1:pos:R:3:force:R:3 energy=-11.73105450690857 config_type=FLD_bcc virial="3.0062821470787444 0.18848803776553208 0.07836887401045815 0.18848803776553208 3.034756655710329 -0.04879472319495891 0.07836887401045815 -0.04879472319495891 2.9872176929342755" pbc="F F F"
Ti       0.01404265       0.09231463      -0.01613826       0.02211567       0.37662845       0.40422141
Ti       1.57331557       1.75321655       1.63074624      -0.02211567      -0.37662845      -0.40422141
2
Lattice="3.132065927997705 4.8358271276640005e-33 1.292569779745443e-38 0.06344639841723176 3.132065927997705 2.4469745848536564e-39 -9.904429894261153e-39 -1.1388437822992012e-38 3.132065927997705" Properties=species:S:1:pos:R:3:force:R:3 energy=-11.408783466437788 config_type=FLD_bcc virial="3.847724433508337 -0.3948182463522617 -0.10517273871254917 -0.3948182463522617 2.8257068180023253 -0.258194477399604 -0.10517273871254917 -0.258194477399604 2.806147427849974" pbc="F F F"
Ti       0.11333349       0.02942300       0.15368321      -2.31376073      -0.72803167      -0.19096637
Ti       1.34889893       1.45818515       1.67260380       2.31376073       0.72803167       0.19096637
2
Lattice="3.132065927997705 4.8358271276640005e-33 0.05996596132475872 -4.8358271276640005e-33 3.132065927997705 2.4469745848536564e-39 -9.904429894261153e-39 -1.1388437822992012e-38 3.132065927997705" Properties=species:S:1:pos:R:3:force:R:3 energy=-11.524999948994505 config_type=FLD_bcc virial="3.3990011972259797 -0.06811977284709714 -0.10495601914571764 -0.06811977284709714 2.813641402355042 0.46424892022804964 -0.10495601914571764 0.46424892022804964 2.775425871103657" pbc="F F F"
Ti       0.08517891       0.03912380      -0.12510979      -1.19762308      -1.09981259       0.32016026
Ti       1.38500551       1.42306880       1.54319258       1.19762308       1.09981259      -0.32016026
2
Lattice="3.2610499627685536 4.8358271276640005e-33 1.292569779745443e-38 -4.8358271276640005e-33 3.132065927997705 2.4469745848536564e-39 -9.904429894261153e-39 -1.1388437822992012e-38 3.132065927997705" Properties=species:S:1:pos:R:3:force:R:3 energy=-11.725131224362963 config_type=FLD_bcc virial="1.6314161689513398 0.10667212978305499 0.22417136501457757 0.10667212978305499 2.445202729710541 -0.06281580128073772 0.22417136501457757 -0.06281580128073772 2.211774983503763" pbc="F F F"
Ti      -0.06384094      -0.14722010      -0.01636756       0.48399964       0.90364121      -0.66822239
Ti       1.65940962       1.62088289       1.42012385      -0.48399964      -0.90364121       0.66822239
2
Lattice="3.132065927997705 4.8358271276640005e-33 1.292569779745443e-38 -4.8358271276640005e-33 3.132065927997705 0.05061305684668708 -9.904429894261153e-39 -1.1388437822992012e-38 3.132065927997705" Properties=species:S:1:pos:R:3:force:R:3 energy=-11.702572964846523 config_type=FLD_bcc virial="3.276158601800264 -0.04001336143658088 0.01988802728536252 -0.04001336143658088 2.927890473789534 -0.20645624910223498 0.01988802728536252 -0.20645624910223498 2.9231861403841464" pbc="F F F"
Ti      -0.02786777      -0.15490526       0.07212808      -0.57448945       0.45746488      -0.35558246
Ti       1.35828149       1.48096536       1.60833324       0.57448945      -0.45746488       0.35558246
2
Lattice="3.161066538442128 4.880603304772001e-33 1.3045380184467898e-38 -4.880603304772001e-33 3.161066538442128 2.4696317569356348e-39 -9.996137578467274e-39 -0.19084299885904243 3.161066538442128" Properties=species:S:1:pos:R:3:force:R:3 energy=-11.363958866417672 config_type=FLD_bcc virial="1.6590333986356733 0.04116324054168652 -0.7674349992072288 0.04116324054168652 2.3345977166257734 0.35877585635652787 -0.7674349992072288 0.35877585635652787 1.9557202434757928" pbc="F F F"
Ti       0.10953386      -0.08278369       0.10814393      -1.19095182       0.49487451      -1.14228623
Ti       1.36882993       1.50435284       1.39928001       1.19095182      -0.49487451       1.14228623
2
Lattice="3.164121599425716 4.880603304772001e-33 1.3045380184467898e-38 -4.880603304772001e-33 3.161066538442128 2.4696317569356348e-39 -9.996137578467274e-39 -1.1493886321353051e-38 3.161066538442128" Properties=species:S:1:pos:R:3:force:R:3 energy=-11.802333510877531 config_type=FLD_bcc virial="2.224317544208974 -0.08967389464117376 -0.010757570302148928 -0.08967389464117376 2.403541687129815 -0.015438622674351022 -0.010757570302148928 -0.015438622674351022 2.2445430361211454" pbc="F F F"
Ti       0.04310363      -0.23046376      -0.00493294      -0.48131846       0.37030149      -0.10921501
Ti       1.54993546       1.49966146       1.55836347       0.48131846      -0.37030149       0.10921501
2
Lattice="3.1441311782012 4.880603304772001e-33 1.3045380184467898e-38 -4.880603304772001e-33 3.161066538442128 2.4696317569356348e-39 -9.996137578467274e-39 -1.1493886321353051e-38 3.161066538442128" Properties=species:S:1:pos:R:3:force:R:3 energy=-11.81856812729056 config_type=FLD_bcc virial="2.4438352784119046 0.05610958749806563 0.12327809686857648 0.05610958749806563 2.3426074105795354 -0.06684892518975044 0.12327809686857648 -0.06684892518975044 2.361722953579652" pbc="F F F"
Ti       0.05417858       0.01813386       0.05956334       0.07364212      -0.12605142      -0.12766116
Ti       1.65623699       1.55360848       1.60008536      -0.07364212       0.12605142       0.12766116
2
Lattice="3.161066538442128 4.880603304772001e-33 -0.10125198243833385 -4.880603304772001e-33 3.161066538442128 2.4696317569356348e-39 -9.996137578467274e-39 -1.1493886321353051e-38 3.161066538442128" Properties=species:S:1:pos:R:3:force:R:3 energy=-11.590395263352416 config_type=FLD_bcc virial="2.291101016581479 -0.3270528400273981 -0.04845442085760504 -0.3270528400273981 2.5154594860517134 0.06786031939783044 -0.04845442085760504 0.06786031939783044 2.1991192078328705" pbc="F F F"
Ti      -0.11068247      -0.05215388      -0.09040092       0.17609468       1.05960089       1.25143404
Ti       1.53439830       1.77212758       1.66105903      -0.17609468      -1.05960089      -1.25143404
2
Lattice="3.161066538442128 4.880603304772001e-33 1.3045380184467898e-38 -4.880603304772001e-33 3.161066538442128 2.4696317569356348e-39 -0.0521508913141228 -1.1493886321353051e-38 3.161066538442128" Properties=species:S:1:pos:R:3:force:R:3 energy=-11.611076094594628 config_type=FLD_bcc virial="2.175280058342879 -0.10439937309427602 0.306765671778777 -0.10439937309427602 2.1735464900601587 -0.12090273765826379 0.306765671778777 -0.12090273765826379 2.8206008078775047" pbc="F F F"
Ti      -0.05894744      -0.04177542       0.16280794       0.24173706       1.23325883      -1.19950877
Ti       1.54494070       1.72342518       1.48028590      -0.24173706      -1.23325883       1.19950877
2
Lattice="3.161066538442128 4.880603304772001e-33 1.3045380184467898e-38 -4.880603304772001e-33 3.161066538442128 2.4696317569356348e-39 -9.996137578467274e-39 -1.1493886321353051e-38 3.166132105095082" Properties=species:S:1:pos:R:3:force:R:3 energy=-11.750339897375264 config_type=FLD_bcc virial="2.1404851529029005 0.006000039846086785 -0.010541076402720522 0.006000039846086785 2.1408196121106435 0.044441185830322416 -0.010541076402720522 0.044441185830322416 2.8546261625480582" pbc="F F F"
Ti       0.01226213       0.01642397       0.09078059       0.05649191      -0.21459078      -1.11211581
Ti       1.60120020       1.56525516       1.42366209      -0.05649191       0.21459078       1.11211581
2
Lattice="3.161066538442128 0.1740248776227395 1.3045380184467898e-38 -4.880603304772001e-33 3.161066538442128 2.4696317569356348e-39 -9.996137578467274e-39 -1.1493886321353051e-38 3.161066538442128" Properties=species:S:1:pos:R:3:force:R:3 energy=-11.589793891071638 config_type=FLD_bcc virial="2.7486372108330994 -0.1358259124930438 0.3133788710549091 -0.1358259124930438 3.16413038940586 -0.19937079945397979 0.3133788710549091 -0.19937079945397979 2.255941736447865" pbc="F F F"
Ti       0.09550967       0.01710152      -0.10685402      -0.84142810      -1.38980296       0.78450628
Ti       1.52066319       1.41527638       1.59775591       0.84142810       1.38980296      -0.78450628
2
Lattice="3.161066538442128 4.880603304772001e-33 1.3045380184467898e-38 -4.880603304772001e-33 3.161066538442128 2.4696317569356348e-39 -0.04203911393541537 -1.1493886321353051e-38 3.161066538442128" Properties=species:S:1:pos:R:3:force:R:3 energy=-11.793589050970937 config_type=FLD_bcc virial="2.2992304377553614 -0.07990701128384711 0.11490438930215882 -0.07990701128384711 2.3099994148582654 -0.0005561928641607122 0.11490438930215882 -0.0005561928641607122 2.3178945155648805" pbc="F F F"
Ti      -0.03985144       0.01002592       0.15946180       0.06479086       0.53533357      -0.35765697
Ti       1.54233775       1.69829420       1.62110304      -0.06479086      -0.53533357       0.35765697
2
Lattice="3.161066538442128 4.880603304772001e-33 1.3045380184467898e-38 -4.880603304772001e-33 3.161066538442128 0.16903235598029787 -9.996137578467274e-39 -1.1493886321353051e-38 3.161066538442128" Properties=species:S:1:pos:R:3:force:R:3 energy=-11.793932145107021 config_type=FLD_bcc virial="2.0249968740594424 0.023429404998039437 0.014109417787320609 0.023429404998039437 2.7235810869746078 -0.24069575994097353 0.014109417787320609 -0.24069575994097353 2.804895493500376" pbc="F F F"
Ti      -0.02687239       0.10541374      -0.07457945      -0.10733181      -0.39550211       0.48425394
Ti       1.53452024       1.62943901       1.71405616       0.10733181       0.39550211      -0.48425394
2
Lattice="3.161066538442128 4.880603304772001e-33 0.07329441546406568 -4.880603304772001e-33 3.161066538442128 2.4696317569356348e-39 -9.996137578467274e-39 -1.1493886321353051e-38 3.161066538442128" Properties=species:S:1:pos:R:3:force:R:3 energy=-11.61214114226634 config_type=FLD_bcc virial="2.343154386262169 0.4037698003668466 -0.18553809633021928 0.4037698003668466 2.311780290187818 -0.30176061702407053 -0.18553809633021928 -0.30176061702407053 2.2939896637393407" pbc="F F F"
Ti       0.03231729      -0.07192780      -0.11079729      -1.02622326       0.58333015       0.91745099
Ti       1.41487209       1.66301677       1.70560171       1.02622326      -0.58333015      -0.91745099
2
Lattice="3.2067899179387362 4.9253794818800005e-33 1.3165062571481365e-38 -4.9253794818800005e-33 3.190067148886551 2.492288929017613e-39 -1.0087845262673396e-38 -1.1599334819714088e-38 3.190067148886551" Properties=species:S:1:pos:R:3:force:R:3 energy=-11.69103716360833 config_type=FLD_bcc virial="1.366029603816033 -0.05419218438738228 -0.011594732199301506 -0.05419218438738228 1.4427703228814703 0.22988600640741327 -0.011594732199301506 0.22988600640741327 2.104143212799695" pbc="F F F"
Ti       0.02201373       0.04044900       0.06229618      -0.06608105      -1.17320306      -1.22257281
Ti       1.61161738       1.45838832       1.38949277       0.06608105       1.17320306       1.22257281
2
Lattice="3.190067148886551 4.9253794818800005e-33 1.3165062571481365e-38 -4.9253794818800005e-33 3.1530874027159275 2.492288929017613e-39 -1.0087845262673396e-38 -1.1599334819714088e-38 3.190067148886551" Properties=species:S:1:pos:R:3:force:R:3 energy=-11.635420212436435 config_type=FLD_bcc virial="1.8561613316690928 -0.4575445187691106 0.1085293147044123 -0.4575445187691106 1.973094430001829 0.1118434287470567 0.1085293147044123 0.1118434287470567 2.153875020252187" pbc="F F F"
Ti      -0.10284311      -0.10435535       0.03242052       0.83858382       0.86448878      -1.00866165
Ti       1.65612580       1.62982350       1.38368327      -0.83858382      -0.86448878       1.00866165
2
Lattice="3.190067148886551 4.9253794818800005e-33 1.3165062571481365e-38 -4.9253794818800005e-33 3.190067148886551 2.492288929017613e-39 -1.0087845262673396e-38 -1.1599334819714088e-38 3.1390446709572752" Properties=species:S:1:pos:R:3:force:R:3 energy=-11.84224193200092 config_type=FLD_bcc virial="1.8890457553488496 -0.27133170393158246 0.00930889771538974 -0.27133170393158246 1.8856241415288242 0.0048526743694261715 0.00930889771538974 0.0048526743694261715 2.1842964023493474" pbc="F F F"
Ti      -0.08477598      -0.02258438       0.03422862       0.22448743       0.23869585       0.06636960
Ti       1.58544546       1.65101037       1.61490504      -0.22448743      -0.23869585      -0.06636960
2
Lattice="3.190067148886551 4.9253794818800005e-33 1.3165062571481365e-38 -4.9253794818800005e-33 3.190067148886551 -0.030295665322146954 -1.0087845262673396e-38 -1.1599334819714088e-38 3.190067148886551" Properties=species:S:1:pos:R:3:force:R:3 energy=-11.819523191240567 config_type=FLD_bcc virial="1.8898122937325974 0.037301895488273853 0.11999533062431159 0.037301895488273853 1.5736969041525386 0.08633666570065998 0.11999533062431159 0.08633666570065998 1.5727086533136134" pbc="F F F"
Ti      -0.05324407      -0.14667070       0.05028543       0.53982149       0.33401400       0.61096395
Ti       1.72632775       1.50294223       1.72666955      -0.53982149      -0.33401400      -0.61096395
2
Lattice="3.190067148886551 4.9253794818800005e-33 1.3165062571481365e-38 -4.9253794818800005e-33 3.17346136128612 2.492288929017613e-39 -1.0087845262673396e-38 -1.1599334819714088e-38 3.190067148886551" Properties=species:S:1:pos:R:3:force:R:3 energy=-11.596499182542148 config_type=FLD_bcc virial="2.2500240968535876 0.1485897588056429 0.09331169737874842 0.1485897588056429 1.680134670395936 -0.5957612890144438 0.09331169737874842 -0.5957612890144438 1.6049439363679712" pbc="F F F"
Ti      -0.13096142       0.14589519       0.12906825       1.40000916      -0.70120475      -0.86244959
Ti       1.76616305       1.59192842       1.56186620      -1.40000916       0.70120475       0.86244959
2
Lattice="3.190067148886551 4.9253794818800005e-33 1.3165062571481365e-38 0.06975366578268846 3.190067148886551 2.492288929017613e-39 -1.0087845262673396e-38 -1.1599334819714088e-38 3.190067148886551" Properties=species:S:1:pos:R:3:force:R:3 energy=-11.813256219119785 config_type=FLD_bcc virial="1.6709896314962345 -0.3333265013006542 -0.09914359219105287 -0.3333265013006542 1.7068051460690032 0.06919137596907823 -0.09914359219105287 0.06919137596907823 1.7246217538797444" pbc="F F F"
Ti       0.08621700       0.00684881      -0.16147072      -0.41976697      -0.59719842      -0.43841310
Ti       1.61014455       1.45067722       1.33431687       0.41976697       0.59719842       0.43841310
2
Lattice="3.190067148886551 4.9253794818800005e-33 1.3165062571481365e-38 -4.9253794818800005e-33 3.332996541989813 2.492288929017613e-39 -1.0087845262673396e-38 -1.1599334819714088e-38 3.190067148886551" Properties=species:S:1:pos:R:3:force:R:3 energy=-11.819613672701093 config_type=FLD_bcc virial="1.3196411915548927 -0.05842166935909436 0.2552150402217006 -0.05842166935909436 0.22755275755605187 0.06678448595560536 0.2552150402217006 0.06678448595560536 0.8011987666573832" pbc="F F F"
Ti       0.04666759      -0.02619511       0.09778976      -0.94699991       0.19941470      -0.64658910
Ti       1.40352943       1.67674877       1.59128931       0.94699991      -0.19941470       0.64658910
2
Lattice="3.190067148886551 4.9253794818800005e-33 1.3165062571481365e-38 -4.9253794818800005e-33 3.190067148886551 2.492288929017613e-39 -1.0087845262673396e-38 -1.1599334819714088e-38 3.425996230902872" Properties=species:S:1:pos:R:3:force:R:3 energy=-11.907632459500663 config_type=FLD_bcc virial="0.012227667663793795 -0.0408545162367292 0.01069154598012668 -0.0408545162367292 0.8639555632588465 0.08845150360910192 0.01069154598012668 0.08845150360910192 0.00469712004976941" pbc="F F F"
Ti      -0.06488166      -0.00001289       0.11869452       0.06912859      -0.37744263      -0.26579693
Ti       1.54393687       1.48528652       1.73332132      -0.06912859       0.37744263       0.26579693
2
Lattice="3.190067148886551 -0.014529872054555054 1.3165062571481365e-38 -4.9253794818800005e-33 3.190067148886551 2.492288929017613e-39 -1.0087845262673396e-38 -1.1599334819714088e-38 3.190067148886551" Properties=species:S:1:pos:R:3:force:R:3 energy=-11.581151453563674 config_type=FLD_bcc virial="2.656458477540695 0.01230333831999754 0.033224756641456854 0.01230333831999754 1.669986003623463 0.04435973947830994 0.033224756641456854 0.04435973947830994 1.6700459553018474" pbc="F F F"
Ti       0.27438118       0.07907197      -0.00350551      -2.42144154       0.26894809      -0.16972506
Ti       1.49172213       1.71184123       1.56455011       2.42144154      -0.26894809       0.16972506
2
Lattice="3.190067148886551 4.9253794818800005e-33 1.3165062571481365e-38 -4.9253794818800005e-33 3.399298635115008 2.492288929017613e-39 -1.0087845262673396e-38 -1.1599334819714088e-38 3.190067148886551" Properties=species:S:1:pos:R:3:force:R:3 energy=-11.697988547961492 config_type=FLD_bcc virial="0.5246257597177362 0.3079472879106951 0.3015422325076754 0.3079472879106951 0.09954058357037177 -0.18274744993831962 0.3015422325076754 -0.18274744993831962 1.0223610531630403" pbc="F F F"
Ti      -0.04614988      -0.17457219      -0.19671938       0.67838323      -0.38009554       1.51019275
Ti       1.67085983       1.43586552       1.71188929      -0.67838323       0.38009554      -1.51019275
2
Lattice="3.2190677593309744 4.970155658988001e-33 1.3284744958494832e-38 -0.061480788421031315 3.2190677593309744 2.5149461010995916e-39 -1.0179552946879518e-38 -1.1704783318075125e-38 3.2190677593309744" Properties=species:S:1:pos:R:3:force:R:3 energy=-11.728794251388159 config_type=FLD_bcc virial="0.9073561837415758 0.3233335981474478 -0.3635382946064465 0.3233335981474478 1.5261778190410107 0.11170587961092986 -0.3635382946064465 0.11170587961092986 0.9178634390928995" pbc="F F F"
Ti       0.06041530      -0.08910308       0.02253381       0.58132174       1.14959998       0.80137748
Ti       1.73854790       1.79045452       1.77378942      -0.58132174      -1.14959998      -0.80137748
2
Lattice="3.2190677593309744 4.970155658988001e-33 0.10840610085456501 -4.970155658988001e-33 3.2190677593309744 2.5149461010995916e-39 -1.0179552946879518e-38 -1.1704783318075125e-38 3.2190677593309744" Properties=species:S:1:pos:R:3:force:R:3 energy=-11.88028728922978 config_type=FLD_bcc virial="1.4811492996479865 0.07011306216639467 0.4725255576927512 0.07011306216639467 0.7658126063711171 0.12252876619753192 0.4725255576927512 0.12252876619753192 1.5767210771394042" pbc="F F F"
Ti       0.16431646       0.01581356       0.09864480      -0.41400122      -0.36479808      -0.40684098
Ti       1.67452569       1.53954195       1.64159554       0.41400122       0.36479808       0.40684098
2
Lattice="3.2190677593309744 4.970155658988001e-33 1.3284744958494832e-38 -4.970155658988001e-33 3.2190677593309744 2.5149461010995916e-39 -1.0179552946879518e-38 -0.05720546191691434 3.2190677593309744" Properties=species:S:1:pos:R:3:force:R:3 energy=-11.801943631328733 config_type=FLD_bcc virial="1.1642304141618052 0.10765166292852144 -0.10994687038350817 0.10765166292852144 1.073608133511275 0.4139891824894258 -0.10994687038350817 0.4139891824894258 1.0871733073564362" pbc="F F F"
Ti      -0.04859460      -0.04385070       0.07638466       0.85440864       0.54051146      -0.54438454
Ti       1.74718182       1.66333790       1.55977485      -0.85440864      -0.54051146       0.54438454
2
Lattice="3.2190677593309744 4.970155658988001e-33 0.05454003088028572 -4.970155658988001e-33 3.2190677593309744 2.5149461010995916e-39 -1.0179552946879518e-38 -1.1704783318075125e-38 3.2190677593309744" Properties=species:S:1:pos:R:3:force:R:3 energy=-11.773189408156911 config_type=FLD_bcc virial="0.9215697817792119 0.17752590639941035 -0.04740054261457305 0.17752590639941035 1.6309691615397925 0.01265827779260514 -0.04740054261457305 0.01265827779260514 0.9236302636390334" pbc="F F F"
Ti      -0.03814727       0.20951164      -0.04360062      -0.72402464      -1.19826825       0.23955617
Ti       1.45714589       1.54375077       1.63882434       0.72402464       1.19826825      -0.23955617
2
Lattice="3.2190677593309744 4.970155658988001e-33 1.3284744958494832e-38 -4.970155658988001e-33 3.2190677593309744 -0.09392779722161743 -1.0179552946879518e-38 -1.1704783318075125e-38 3.2190677593309744" Properties=species:S:1:pos:R:3:force:R:3 energy=-11.546262538649211 config_type=FLD_bcc virial="0.7343418435927909 -1.5196577173956103 -0.9638138836257388 -1.5196577173956103 0.5888202134957883 -1.3400678019431926 -0.9638138836257388 -1.3400678019431926 0.6439143067639312" pbc="F F F"
Ti       0.21835736       0.02844970       0.03134036      -0.80999016       0.27978856      -0.70271586
Ti       1.50247809       1.50301285       1.32500681       0.80999016      -0.27978856       0.70271586
2
Lattice="3.2190677593309744 0.06213411765160659 1.3284744958494832e-38 -4.970155658988001e-33 3.2190677593309744 2.5149461010995916e-39 -1.0179552946879518e-38 -1.1704783318075125e-38 3.2190677593309744" Properties=species:S:1:pos:R:3:force:R:3 energy=-11.864060031029412 config_type=FLD_bcc virial="1.0224709100658034 -0.40247709422179484 0.09850298291041695 -0.40247709422179484 0.9925816625035484 0.033268410800867426 0.09850298291041695 0.033268410800867426 0.9875530092914424" pbc="F F F"
Ti       0.10723818      -0.01951455      -0.07493162      -0.41684982       0.47579856       0.33619770
Ti       1.61534250       1.74705672       1.63084790       0.41684982      -0.47579856      -0.33619770
2
Lattice="3.2190677593309744 4.970155658988001e-33 1.3284744958494832e-38 0.08971735924194926 3.2190677593309744 2.5149461010995916e-39 -1.0179552946879518e-38 -1.1704783318075125e-38 3.2190677593309744" Properties=species:S:1:pos:R:3:force:R:3 energy=-11.805899728739485 config_type=FLD_bcc virial="1.239449882831111 0.06497317315302638 -0.08883224899679382 0.06497317315302638 1.5535660906964557 0.060939595870576777 -0.08883224899679382 0.060939595870576777 0.9213088911352676" pbc="F F F"
Ti       0.06369724       0.12610185      -0.08945928      -0.85511402      -0.79628398      -0.10350769
Ti       1.56201806       1.51888350       1.49669610       0.85511402       0.79628398       0.10350769
2
Lattice="3.2190677593309744 4.970155658988001e-33 1.3284744958494832e-38 -4.970155658988001e-33 3.2190677593309744 -0.07227909995456597 -1.0179552946879518e-38 -1.1704783318075125e-38 3.2190677593309744" Properties=species:S:1:pos:R:3:force:R:3 energy=-11.856646423352494 config_type=FLD_bcc virial="1.2961850479624584 0.002386735644026864 -0.1580411446373349 0.002386735644026864 0.9322040783199821 0.28674768193148537 -0.1580411446373349 0.28674768193148537 0.923501359643268" pbc="F F F"
Ti      -0.11201725       0.03977971       0.10245198       0.55599780      -0.16083443      -0.58497228
Ti       1.69414357       1.62111866       1.58184367      -0.55599780       0.16083443       0.58497228
2
Lattice="3.2190677593309744 4.970155658988001e-33 1.3284744958494832e-38 -4.970155658988001e-33 3.2190677593309744 -0.05382557159593951 -1.0179552946879518e-38 -1.1704783318075125e-38 3.2190677593309744" Properties=species:S:1:pos:R:3:force:R:3 energy=-11.716116021691013 config_type=FLD_bcc virial="1.8732396869240233 0.04513719284927699 0.06407676131367723 0.04513719284927699 1.0003331719892739 0.04244382385846285 0.06407676131367723 0.04244382385846285 1.0001492483521943" pbc="F F F"
Ti       0.10358119      -0.12004216       0.04302947      -1.83705710      -0.23091110      -0.27546039
Ti       1.37592049       1.45085108       1.58082680       1.83705710       0.23091110       0.27546039
2
Lattice="3.2190677593309744 4.970155658988001e-33 1.3284744958494832e-38 -4.970155658988001e-33 3.2190677593309744 2.5149461010995916e-39 -1.0179552946879518e-38 0.051817089990000745 3.2190677593309744" Properties=species:S:1:pos:R:3:force:R:3 energy=-11.863453803182162 config_type=FLD_bcc virial="1.0111569808776304 -0.024446758085247773 -0.029786659897333485 -0.024446758085247773 0.9975407124893811 -0.26892414230174794 -0.029786659897333485 -0.26892414230174794 1.0170561861864496" pbc="F F F"
Ti      -0.07414901      -0.02790025       0.17345425       0.49336371       0.09274208      -0.51254298
Ti       1.66954339       1.62206587       1.64613134      -0.49336371      -0.09274208       0.51254298
2
Lattice="3.2480683697753974 5.014931836096001e-33 -0.10105359258519916 -5.014931836096001e-33 3.2480683697753974 2.5376032731815696e-39 -1.027126063108564e-38 -1.181023181643616e-38 3.2480683697753974" Properties=species:S:1:pos:R:3:force:R:3 energy=-11.902299745951831 config_type=FLD_bcc virial="0.8854351948909596 -0.1795363905846382 -0.1759893197288518 -0.1795363905846382 0.16523653041584296 0.023245893085269753 -0.1759893197288518 0.023245893085269753 0.6800293538464102" pbc="F F F"
Ti       0.11736962      -0.02201478       0.03809515      -0.50600419       0.40240905       0.05268775
Ti       1.57132007       1.67862915       1.64252127       0.50600419      -0.40240905      -0.05268775
2
Lattice="3.2480683697753974 5.014931836096001e-33 1.3404427345508297e-38 -5.014931836096001e-33 3.2480683697753974 2.5376032731815696e-39 -1.027126063108564e-38 -0.2094644497516516 3.2480683697753974" Properties=species:S:1:pos:R:3:force:R:3 energy=-11.703787009229528 config_type=FLD_bcc virial="0.7153515720699 0.5757000903585778 -0.3404078191971317 0.5757000903585778 0.8631438558919182 0.0818948577624076 -0.3404078191971317 0.0818948577624076 0.713089948793681" pbc="F F F"
Ti      -0.00982136      -0.09315555      -0.04551550       1.34890132       1.18767650      -0.26332448
Ti       1.87756835       1.64067323       1.54050395      -1.34890132      -1.18767650       0.26332448
2
Lattice="3.2480683697753974 5.014931836096001e-33 1.3404427345508297e-38 -5.014931836096001e-33 3.2480683697753974 2.5376032731815696e-39 -0.012924650252743024 -1.181023181643616e-38 3.2480683697753974" Properties=species:S:1:pos:R:3:force:R:3 energy=-11.899608007112699 config_type=FLD_bcc virial="0.3450745418588008 0.0747360994952411 -0.06817631064192536 0.0747360994952411 0.3449448597247935 0.0684132711036899 -0.06817631064192536 0.0684132711036899 0.3791466272969002" pbc="F F F"