2
Lattice="3.164691614747681 4.886200326910501e-33 1.306034048284458e-38 -4.886200326910501e-33 3.164691614747681 2.4724639034458822e-39 -1.000760103899304e-38 -0.0056697587193261095 3.164691614747681" Properties=species:S:1:pos:R:3:force:R:3 virial="2.185612283665014 0.0211336246700029 -0.052149015233563356 0.0211336246700029 2.1915031760157175 0.03830701955731738 -0.052149015233563356 0.03830701955731738 2.1920399614060253" energy=-11.828122965690763 config_type=FLD_bcc pbc="F F F"
Ti      -0.07105965      -0.07799200       0.02108688       0.19061975       0.13067569      -0.30320836 
Ti       1.62099643       1.52316496       1.55329187      -0.19061975      -0.13067569       0.30320836 
2
Lattice="3.1518316309987204 4.886200326910501e-33 1.306034048284458e-38 -4.886200326910501e-33 3.164691614747681 2.4724639034458822e-39 -1.000760103899304e-38 -1.150706738364818e-38 3.164691614747681" Properties=species:S:1:pos:R:3:force:R:3 virial="2.3121560274330526 -0.049731580279432856 -0.15202385963886125 -0.049731580279432856 2.2239923833376802 -0.06320222311876808 -0.15202385963886125 -0.06320222311876808 2.2481787144408445" energy=-11.829112839979874 config_type=FLD_bcc pbc="F F F"
Ti      -0.01375798      -0.04510051       0.03086666       0.06737661       0.16019611       0.09194438 
Ti       1.59115923       1.59168298       1.64717495      -0.06737661      -0.16019611      -0.09194438 
2
Lattice="3.164691614747681 -0.09241146662437792 1.306034048284458e-38 -4.886200326910501e-33 3.164691614747681 2.4724639034458822e-39 -1.000760103899304e-38 -1.150706738364818e-38 3.164691614747681" Properties=species:S:1:pos:R:3:force:R:3 virial="2.265184535177554 0.3235469953777249 0.12274025043545651 0.3235469953777249 2.259595596362542 -0.025724672526196198 0.12274025043545651 -0.025724672526196198 2.2177264177780813" energy=-11.80417909852127 config_type=FLD_bcc pbc="F F F"
Ti       0.03903962      -0.06021363      -0.02637661      -0.28606521       0.48849161       0.15162991 
Ti       1.51263923       1.56799199       1.59745899       0.28606521      -0.48849161      -0.15162991 
2
Lattice="3.164691614747681 0.0060398757694788245 1.306034048284458e-38 -4.886200326910501e-33 3.164691614747681 2.4724639034458822e-39 -1.000760103899304e-38 -1.150706738364818e-38 3.164691614747681" Properties=species:S:1:pos:R:3:force:R:3 virial="2.1268132959998725 -0.029800352158826395 0.008733529476830431 -0.029800352158826395 2.190389184948808 0.00030008475203116645 0.008733529476830431 0.00030008475203116645 2.1905709094768318" energy=-11.839163774677033 config_type=FLD_bcc pbc="F F F"
Ti       0.09016049       0.00198560       0.03277827      -0.12955346      -0.06009877      -0.04961090 
Ti       1.57961805       1.57663897       1.60668816       0.12955346       0.06009877       0.04961090 
2
Lattice="3.164691614747681 4.886200326910501e-33 1.306034048284458e-38 -4.886200326910501e-33 3.175683370177659 2.4724639034458822e-39 -1.000760103899304e-38 -1.150706738364818e-38 3.164691614747681" Properties=species:S:1:pos:R:3:force:R:3 virial="2.0021593780899254 -0.013223330506577912 0.011574499194140414 -0.013223330506577912 2.058272977212562 0.0010441635792416961 0.011574499194140414 0.0010441635792416961 2.132740470028569" energy=-11.848340618880249 config_type=FLD_bcc pbc="F F F"
Ti       0.05055624      -0.02847963      -0.06183007      -0.07533700       0.10103672      -0.08402278 
Ti       1.56843968       1.57757379       1.50548389       0.07533700      -0.10103672       0.08402278 
2
Lattice="3.164691614747681 4.886200326910501e-33 1.306034048284458e-38 -4.886200326910501e-33 3.164691614747681 2.4724639034458822e-39 -1.000760103899304e-38 -1.150706738364818e-38 3.161338903181339" Properties=species:S:1:pos:R:3:force:R:3 virial="2.16619507647041 0.08023765072708486 -0.044415790012546565 0.08023765072708486 2.190318189811564 0.1182049266658537 -0.044415790012546565 0.1182049266658537 2.1973101642213115" energy=-11.835558098065082 config_type=FLD_bcc pbc="F F F"
Ti       0.00235673      -0.03861601       0.00855063      -0.12978737       0.08848162      -0.13046235 
Ti       1.53821785       1.57782950       1.54603503       0.12978737      -0.08848162       0.13046235 
2
Lattice="3.164691614747681 4.886200326910501e-33 -0.013549746061289843 -4.886200326910501e-33 3.164691614747681 2.4724639034458822e-39 -1.000760103899304e-38 -1.150706738364818e-38 3.164691614747681" Properties=species:S:1:pos:R:3:force:R:3 virial="2.16313942340783 -0.09886968131531507 -0.0858442985306436 -0.09886968131531507 2.1750591955558694 0.047445687666759655 -0.0858442985306436 0.047445687666759655 2.1084641852907344" energy=-11.840994905497286 config_type=FLD_bcc pbc="F F F"
Ti       0.04270527      -0.02278932       0.09302721      -0.08273315      -0.06859129      -0.11287720 
Ti       1.60270843       1.54270584       1.61451402       0.08273315       0.06859129       0.11287720 
2
Lattice="3.164691614747681 4.886200326910501e-33 0.05369140615779293 -4.886200326910501e-33 3.164691614747681 2.4724639034458822e-39 -1.000760103899304e-38 -1.150706738364818e-38 3.164691614747681" Properties=species:S:1:pos:R:3:force:R:3 virial="2.1922233218337674 -8.885641642554336e-05 -0.3166993079402829 -8.885641642554336e-05 2.1970911707226572 0.0020431656040344384 -0.3166993079402829 0.0020431656040344384 2.1932216326787897" energy=-11.830858587662364 config_type=FLD_bcc pbc="F F F"
Ti      -0.03513193      -0.04102209       0.03049852      -0.16310265      -0.00757181      -0.19606860 
Ti       1.51680076       1.54008527       1.52366700       0.16310265       0.00757181       0.19606860 
2
Lattice="3.164691614747681 -0.0010430395282020333 1.306034048284458e-38 -4.886200326910501e-33 3.164691614747681 2.4724639034458822e-39 -1.000760103899304e-38 -1.150706738364818e-38 3.164691614747681" Properties=species:S:1:pos:R:3:force:R:3 virial="2.1225469931536827 -0.13097113806803432 0.15575233167960675 -0.13097113806803432 2.1750389401764325 -0.06842515772619945 0.15575233167960675 -0.06842515772619945 2.1893891114030994" energy=-11.835482334788033 config_type=FLD_bcc pbc="F F F"
Ti      -0.01147078      -0.07579863       0.00076014       0.13602985       0.18963988       0.09188648 
Ti       1.63559600       1.55329318       1.60546813      -0.13602985      -0.18963988      -0.09188648 
2
Lattice="3.164691614747681 4.886200326910501e-33 1.306034048284458e-38 -4.886200326910501e-33 3.2081556157185 2.4724639034458822e-39 -1.000760103899304e-38 -1.150706738364818e-38 3.164691614747681" Properties=species:S:1:pos:R:3:force:R:3 virial="2.079263593308237 0.03610277129612591 -0.06467099874491805 0.03610277129612591 1.6623817601439344 0.011126687465709956 -0.06467099874491805 0.011126687465709956 1.9281028333016739" energy=-11.842785762941448 config_type=FLD_bcc pbc="F F F"
Ti      -0.13060870      -0.02330540       0.03938240       0.38133356       0.17333917      -0.29042035 
Ti       1.60444397       1.60893389       1.57570829      -0.38133356      -0.17333917       0.29042035 
2
Lattice="3.1864420725809985 -0.02026796831932547 1.315010227310468e-38 -4.919782459741501e-33 3.1864420725809985 2.4894567825073658e-39 -1.0076381802147631e-38 -1.1586153757418959e-38 3.1864420725809985" Properties=species:S:1:pos:R:3:force:R:3 virial="1.6665278233487753 0.02966718435515848 0.07721308519392968 0.02966718435515848 1.6308502400962324 -0.14707935485883247 0.07721308519392968 -0.14707935485883247 1.6624769100048447" energy=-11.870560618221344 config_type=FLD_bcc pbc="F F F"
Ti       0.06446782       0.06257141       0.04208715      -0.22625770      -0.18904568       0.06853326 
Ti       1.60302556       1.56174926       1.65577775       0.22625770       0.18904568      -0.06853326 
2
Lattice="3.1864420725809985 4.919782459741501e-33 1.315010227310468e-38 -4.919782459741501e-33 3.1738483868691616 2.4894567825073658e-39 -1.0076381802147631e-38 -1.1586153757418959e-38 3.1864420725809985" Properties=species:S:1:pos:R:3:force:R:3 virial="1.6696500312343199 -0.16696810080887511 -0.09820838916873614 -0.16696810080887511 1.7769480118873178 0.09844422092767309 -0.09820838916873614 0.09844422092767309 1.7264282414875671" energy=-11.872783871866037 config_type=FLD_bcc pbc="F F F"
Ti       0.00766635       0.04042076      -0.02990668       0.07556191       0.12078156      -0.02217058 
Ti       1.64522192       1.65959173       1.55441676      -0.07556191      -0.12078156       0.02217058 
2
Lattice="3.1864420725809985 4.919782459741501e-33 -0.16044546709194948 -4.919782459741501e-33 3.1864420725809985 2.4894567825073658e-39 -1.0076381802147631e-38 -1.1586153757418959e-38 3.1864420725809985" Properties=species:S:1:pos:R:3:force:R:3 virial="2.3080010647576685 0.04148982057973367 -0.5840993501195225 0.04148982057973367 1.2223151134526198 0.003697742480297899 -0.5840993501195225 0.003697742480297899 2.399593187692265" energy=-11.879551688799891 config_type=FLD_bcc pbc="F F F"
Ti       0.07726274      -0.01406244       0.03264030      -0.31104921      -0.34624856      -0.14388408 
Ti       1.61962005       1.49572972       1.52149374       0.31104921       0.34624856       0.14388408 
2
Lattice="3.1864420725809985 4.919782459741501e-33 1.315010227310468e-38 -0.032012293347099076 3.1864420725809985 2.4894567825073658e-39 -1.0076381802147631e-38 -1.1586153757418959e-38 3.1864420725809985" Properties=species:S:1:pos:R:3:force:R:3 virial="1.6141569739049162 -0.13242004209243974 0.002627446347095136 -0.13242004209243974 1.6240724446565693 0.0025366592983239056 0.002627446347095136 0.0025366592983239056 1.6195420678222057" energy=-11.881770205295755 config_type=FLD_bcc pbc="F F F"
Ti       0.00711486      -0.00403844      -0.04665422       0.14714125       0.04544749       0.03468281 
Ti       1.63360626       1.60933775       1.55329587      -0.14714125      -0.04544749      -0.03468281 
2
Lattice="3.2314592293340323 4.919782459741501e-33 1.315010227310468e-38 -4.919782459741501e-33 3.1864420725809985 2.4894567825073658e-39 -1.0076381802147631e-38 -1.1586153757418959e-38 3.1864420725809985" Properties=species:S:1:pos:R:3:force:R:3 virial="1.1446380207545248 -0.021131403624741175 0.13922237775289587 -0.021131403624741175 1.396594069618402 0.028579211410911135 0.13922237775289587 0.028579211410911135 1.778303534824973" energy=-11.842391135665734 config_type=FLD_bcc pbc="F F F"
Ti       0.07267288       0.02780008       0.07451361      -0.52026026      -0.13060388      -0.63616146 
Ti       1.60542780       1.60012999       1.47067781       0.52026026       0.13060388       0.63616146 
2
Lattice="3.185535546005233 4.919782459741501e-33 1.315010227310468e-38 -4.919782459741501e-33 3.1864420725809985 2.4894567825073658e-39 -1.0076381802147631e-38 -1.1586153757418959e-38 3.1864420725809985" Properties=species:S:1:pos:R:3:force:R:3 virial="1.6740973453158592 0.10857629802881327 -0.008343834528142613 0.10857629802881327 1.8510078658635356 0.016926016398019075 -0.008343834528142613 0.016926016398019075 1.6690255990105634" energy=-11.845720929838706 config_type=FLD_bcc pbc="F F F"
Ti       0.05398600       0.09918443       0.05660333      -0.48325757      -0.37227891      -0.09111961 
Ti       1.56964175       1.53624938       1.63507822       0.48325757       0.37227891       0.09111961 
2
Lattice="3.1864420725809985 4.919782459741501e-33 1.315010227310468e-38 -4.919782459741501e-33 3.1864420725809985 2.4894567825073658e-39 -0.013048281513943251 -1.1586153757418959e-38 3.1864420725809985" Properties=species:S:1:pos:R:3:force:R:3 virial="1.604317268142509 -0.15148557494767353 -0.0596104655685671 -0.15148557494767353 1.6503656476320439 0.08083933626460478 -0.0596104655685671 0.08083933626460478 1.6696256967714298" energy=-11.875197709509967 config_type=FLD_bcc pbc="F F F"
Ti       0.07377606       0.09569636      -0.01127824      -0.13829858      -0.12217958       0.12882066 
Ti       1.59152762       1.65213194       1.61254252       0.13829858       0.12217958      -0.12882066 
2
Lattice="3.1864420725809985 4.919782459741501e-33 1.315010227310468e-38 -4.919782459741501e-33 3.04428481571963 2.4894567825073658e-39 -1.0076381802147631e-38 -1.1586153757418959e-38 3.1864420725809985" Properties=species:S:1:pos:R:3:force:R:3 virial="2.4743642885759507 -0.0148903242616436 -0.026145029724528222 -0.0148903242616436 3.5352184222203293 -0.06594895636963594 -0.026145029724528222 -0.06594895636963594 2.7058459366401673" energy=-11.735095706265824 config_type=FLD_bcc pbc="F F F"
Ti      -0.00254196       0.00976742       0.06528990       0.12407003       0.46268631      -0.26004424 
Ti       1.61117811       1.59732539       1.51201220      -0.12407003      -0.46268631       0.26004424 
2
Lattice="3.1864420725809985 4.919782459741501e-33 1.315010227310468e-38 -0.02795612755091202 3.1864420725809985 2.4894567825073658e-39 -1.0076381802147631e-38 -1.1586153757418959e-38 3.1864420725809985" Properties=species:S:1:pos:R:3:force:R:3 virial="1.898240278032592 0.2281430132124502 0.10002488707342592 0.2281430132124502 1.6605657000586085 -0.05088471378592732 0.10002488707342592 -0.05088471378592732 1.6600003270756751" energy=-11.82864986294434 config_type=FLD_bcc pbc="F F F"
Ti      -0.05924104      -0.03836821      -0.07769669       0.45065103       0.35928598       0.50803166 
Ti       1.68809003       1.61052028       1.59715406      -0.45065103      -0.35928598      -0.50803166 
2
Lattice="3.1864420725809985 4.919782459741501e-33 1.315010227310468e-38 -4.919782459741501e-33 3.1864420725809985 -0.0313828309689891 -1.0076381802147631e-38 -1.1586153757418959e-38 3.1864420725809985" Properties=species:S:1:pos:R:3:force:R:3 virial="1.6676628296801734 0.0619522885495079 -0.17476939931556637 0.0619522885495079 1.7241091889289217 0.003153338725564836 -0.17476939931556637 0.003153338725564836 1.713808073705195" energy=-11.84744528113265 config_type=FLD_bcc pbc="F F F"
Ti       0.00216161      -0.02496475       0.02933515       0.38925224       0.41500798       0.11057063 
Ti       1.68669704       1.68324254       1.64547356      -0.38925224      -0.41500798      -0.11057063 
2
Lattice="3.2054597092053867 4.953364592572501e-33 1.3239864063364782e-38 -4.953364592572501e-33 3.2081925304143155 2.5064496615688494e-39 -1.0145162565302223e-38 -1.1665240131189735e-38 3.2081925304143155" Properties=species:S:1:pos:R:3:force:R:3 virial="1.195359171235908 -4.029711112200386e-06 -0.007411073853177385 -4.029711112200386e-06 1.1784073666452173 -0.018925051013499332 -0.007411073853177385 -0.018925051013499332 1.0905259447524651" energy=-11.906436402653288 config_type=FLD_bcc pbc="F F F"
Ti       0.07028968      -0.03488766      -0.07892971      -0.04191553      -0.10106567       0.07030988 
Ti       1.66507043       1.55000101       1.60458229       0.04191553       0.10106567      -0.07030988 
2
Lattice="3.2081925304143155 4.953364592572501e-33 1.3239864063364782e-38 -4.953364592572501e-33 3.2081925304143155 -0.004610296455489438 -1.0145162565302223e-38 -1.1665240131189735e-38 3.2081925304143155" Properties=species:S:1:pos:R:3:force:R:3 virial="1.1838354313142423 -0.049012262958936174 0.07534074852864353 -0.049012262958936174 1.1691928227710324 -0.11413538471864841 0.07534074852864353 -0.11413538471864841 1.184901587699307" energy=-11.889432403192773 config_type=FLD_bcc pbc="F F F"
Ti      -0.06413401      -0.08824395       0.02760523       0.30193103       0.22640712      -0.15020432 
Ti       1.61450169       1.61646753       1.59278192      -0.30193103      -0.22640712       0.15020432 
2
Lattice="3.2081925304143155 4.953364592572501e-33 1.3239864063364782e-38 -4.953364592572501e-33 3.1898873489279826 2.5064496615688494e-39 -1.0145162565302223e-38 -1.1665240131189735e-38 3.2081925304143155" Properties=species:S:1:pos:R:3:force:R:3 virial="1.228234363698384 -0.07028709777870143 -0.009053081679176064 -0.07028709777870143 1.339909623550506 -0.13137477631327404 -0.009053081679176064 -0.13137477631327404 1.2570077334260965" energy=-11.896662494553865 config_type=FLD_bcc pbc="F F F"
Ti       0.02614662       0.03976323      -0.04889417      -0.15061276      -0.10977612      -0.06615152 
Ti       1.56771915       1.59512390       1.52559399       0.15061276       0.10977612       0.06615152 
2
Lattice="3.2081925304143155 4.953364592572501e-33 1.3239864063364782e-38 -4.953364592572501e-33 3.2081925304143155 0.02116565156568611 -1.0145162565302223e-38 -1.1665240131189735e-38 3.2081925304143155" Properties=species:S:1:pos:R:3:force:R:3 virial="1.1744526209271315 0.00361861973146573 -0.013115358803391514 0.00361861973146573 1.1710633590111774 -0.019864874290609427 -0.013115358803391514 -0.019864874290609427 1.3485431117559292" energy=-11.881134898597617 config_type=FLD_bcc pbc="F F F"
Ti      -0.02088092      -0.00817016      -0.11217729      -0.05916833       0.40352434       0.33925024 
Ti       1.57347326       1.66425942       1.66020037       0.05916833      -0.40352434      -0.33925024 
2
Lattice="3.2081925304143155 0.002871883741444972 1.3239864063364782e-38 -4.953364592572501e-33 3.2081925304143155 2.5064496615688494e-39 -1.0145162565302223e-38 -1.1665240131189735e-38 3.2081925304143155" Properties=species:S:1:pos:R:3:force:R:3 virial="1.1464693887884856 -0.12802222816167463 -0.08667262337869072 -0.12802222816167463 1.099979260828837 0.10937015918551732 -0.08667262337869072 0.10937015918551732 1.1600464839567586" energy=-11.903138545369465 config_type=FLD_bcc pbc="F F F"
Ti      -0.05884859      -0.04063724      -0.04807935       0.13938633       0.12388236       0.08445745 
Ti       1.58893660       1.62986548       1.58212792      -0.13938633      -0.12388236      -0.08445745 
2
Lattice="3.2081925304143155 4.953364592572501e-33 1.3239864063364782e-38 -4.953364592572501e-33 3.2081925304143155 2.5064496615688494e-39 -0.002067764343963975 -1.1665240131189735e-38 3.2081925304143155" Properties=species:S:1:pos:R:3:force:R:3 virial="1.160820152263985 -0.028080494377942456 -0.10071115686680406 -0.028080494377942456 1.1267073794309619 -0.03500720160845024 -0.10071115686680406 -0.03500720160845024 1.1626292747121596" energy=-11.899664651123373 config_type=FLD_bcc pbc="F F F"
Ti      -0.03957099      -0.02430950      -0.00587218       0.15938983       0.14011420       0.15459614 
Ti       1.61941562       1.63900794       1.65282918      -0.15938983      -0.14011420      -0.15459614 
2
Lattice="3.2081925304143155 4.953364592572501e-33 1.3239864063364782e-38 -4.953364592572501e-33 3.2081925304143155 2.5064496615688494e-39 -1.0145162565302223e-38 -1.1665240131189735e-38 3.1663506949070683" Properties=species:S:1:pos:R:3:force:R:3 virial="1.4764217600706244 0.013683065458420976 -0.1477649352456769 0.013683065458420976 1.4442179909429615 -0.06124450164724225 -0.1477649352456769 -0.06124450164724225 1.6628565263836697" energy=-11.856933236262533 config_type=FLD_bcc pbc="F F F"
Ti      -0.06642619       0.04188038      -0.01281903       0.29132251      -0.45327406      -0.16082501 
Ti       1.65123399       1.54447625       1.53342490      -0.29132251       0.45327406       0.16082501 
2
Lattice="3.2081925304143155 4.953364592572501e-33 1.3239864063364782e-38 -4.953364592572501e-33 3.1909074488380296 2.5064496615688494e-39 -1.0145162565302223e-38 -1.1665240131189735e-38 3.2081925304143155" Properties=species:S:1:pos:R:3:force:R:3 virial="1.2880039604837332 0.06569797650349825 0.020200822427574337 0.06569797650349825 1.3727666156710132 -0.0018996019875387286 0.020200822427574337 -0.0018996019875387286 1.2641731824900475" energy=-11.889780550122106 config_type=FLD_bcc pbc="F F F"
Ti      -0.07581207      -0.01873118      -0.00714358       0.16702165       0.29039883       0.09304720 
Ti       1.64489607       1.62698716       1.61325568      -0.16702165      -0.29039883      -0.09304720 
2
Lattice="3.2081925304143155 0.008423319586789872 1.3239864063364782e-38 -4.953364592572501e-33 3.2081925304143155 2.5064496615688494e-39 -1.0145162565302223e-38 -1.1665240131189735e-38 3.2081925304143155" Properties=species:S:1:pos:R:3:force:R:3 virial="1.093191276518903 0.2846497690288854 0.027455740080068347 0.2846497690288854 1.1022393587696016 -0.058355118046620316 0.027455740080068347 -0.058355118046620316 1.125333473738384" energy=-11.909932919907986 config_type=FLD_bcc pbc="F F F"
Ti       0.05024040      -0.00044630      -0.00378850      -0.06952773       0.04101308       0.04287093 
Ti       1.62457570       1.62800156       1.61107300       0.06952773      -0.04101308      -0.04287093 
2
Lattice="3.2081925304143155 -0.04298911257255293 1.3239864063364782e-38 -4.953364592572501e-33 3.2081925304143155 2.5064496615688494e-39 -1.0145162565302223e-38 -1.1665240131189735e-38 3.2081925304143155" Properties=species:S:1:pos:R:3:force:R:3 virial="1.1247331554972932 0.11420233948930773 -0.11785266478097649 0.11420233948930773 1.1804307636214517 0.06935288970970115 -0.11785266478097649 0.06935288970970115 1.169546233451113" energy=-11.896198940328595 config_type=FLD_bcc pbc="F F F"
Ti      -0.05662416       0.04898876      -0.09061325       0.13948443      -0.25479527       0.15167218 
Ti       1.62699002       1.57518299       1.55844200      -0.13948443       0.25479527      -0.15167218 
2
Lattice="3.2299429882476334 4.986946725403501e-33 1.332962585362488e-38 -4.986946725403501e-33 3.2299429882476334 2.5234425406303334e-39 -1.0213943328456814e-38 -1.1744326504960513e-38 3.225285740603952" Properties=species:S:1:pos:R:3:force:R:3 virial="0.7931431214206359 -0.06088172638796682 0.061292802911392365 -0.06088172638796682 0.7145495604283028 0.005760798520302852 0.061292802911392365 0.005760798520302852 0.7406802532740855" energy=-11.910414590853696 config_type=FLD_bcc pbc="F F F"
Ti      -0.03820237      -0.01123610      -0.01855814       0.21013806      -0.22494674       0.22433026 
Ti       1.71324972       1.56407348       1.63353921      -0.21013806       0.22494674      -0.22433026 
2
Lattice="3.2131264992889377 4.986946725403501e-33 1.332962585362488e-38 -4.986946725403501e-33 3.2299429882476334 2.5234425406303334e-39 -1.0213943328456814e-38 -1.1744326504960513e-38 3.2299429882476334" Properties=species:S:1:pos:R:3:force:R:3 virial="0.8766152165934384 0.025362155944770808 -0.008487764962679174 0.025362155944770808 0.7850380396119494 0.0008501188618600863 -0.008487764962679174 0.0008501188618600863 0.785534194128104" energy=-11.917395981434751 config_type=FLD_bcc pbc="F F F"
Ti       0.01817915       0.07893640       0.02885207      -0.17410571      -0.09230470       0.03321808 
Ti       1.50083654       1.67738343       1.64976897       0.17410571       0.09230470      -0.03321808 
2
Lattice="3.2299429882476334 4.986946725403501e-33 -0.06302770970063515 -4.986946725403501e-33 3.2299429882476334 2.5234425406303334e-39 -1.0213943328456814e-38 -1.1744326504960513e-38 3.2299429882476334" Properties=species:S:1:pos:R:3:force:R:3 virial="1.0377270475111082 -0.001321946381798578 -0.353303648972538 -0.001321946381798578 0.48161588587318693 0.01761176610547947 -0.353303648972538 0.01761176610547947 1.0336195673465136" energy=-11.924692474240636 config_type=FLD_bcc pbc="F F F"
Ti       0.00753338      -0.01360019      -0.03616848      -0.06589159      -0.07938612       0.14304595 
Ti       1.59852316       1.57825620       1.63423303       0.06589159       0.07938612      -0.14304595 
2
Lattice="3.2299429882476334 4.986946725403501e-33 1.332962585362488e-38 0.016017402581228947 3.2299429882476334 2.5234425406303334e-39 -1.0213943328456814e-38 -1.1744326504960513e-38 3.2299429882476334" Properties=species:S:1:pos:R:3:force:R:3 virial="0.6319028295309144 -0.09327444386797293 -0.06972956770522673 -0.09327444386797293 0.6841525277089309 0.034182359687437686 -0.06972956770522673 0.034182359687437686 0.6924392266152886" energy=-11.915602387471386 config_type=FLD_bcc pbc="F F F"
Ti       0.00523259      -0.02625621      -0.00223154       0.10943124       0.25801976      -0.10410085 
Ti       1.71310798       1.64912635       1.58826456      -0.10943124      -0.25801976       0.10410085 
2
Lattice="3.2299429882476334 4.986946725403501e-33 1.332962585362488e-38 -4.986946725403501e-33 3.2025150782216105 2.5234425406303334e-39 -1.0213943328456814e-38 -1.1744326504960513e-38 3.2299429882476334" Properties=species:S:1:pos:R:3:force:R:3 virial="0.8301560860894242 0.07543920293230576 -0.15550302410707578 0.07543920293230576 0.9720413626911047 -0.0770273334146845 -0.15550302410707578 -0.0770273334146845 0.8413900587588349" energy=-11.907318441646703 config_type=FLD_bcc pbc="F F F"
Ti      -0.06541897      -0.02690116      -0.05078261      -0.18393108       0.21494867       0.11227234 
Ti       1.45598175       1.63339226       1.59458109       0.18393108      -0.21494867      -0.11227234 
2
Lattice="3.2299429882476334 -0.05394146491284658 1.332962585362488e-38 -4.986946725403501e-33 3.2299429882476334 2.5234425406303334e-39 -1.0213943328456814e-38 -1.1744326504960513e-38 3.2299429882476334" Properties=species:S:1:pos:R:3:force:R:3 virial="0.8687279751690316 0.0005040187961452419 0.10461323638618936 0.0005040187961452419 0.8441672802559896 -0.030297139430042717 0.10461323638618936 -0.030297139430042717 0.580122575348696" energy=-11.920574847875008 config_type=FLD_bcc pbc="F F F"
Ti      -0.00298907      -0.03917003       0.00123848       0.11817565       0.16051487       0.00744326 
Ti       1.63199628       1.65260711       1.61069834      -0.11817565      -0.16051487      -0.00744326 
2
Lattice="3.2299429882476334 4.986946725403501e-33 1.332962585362488e-38 -4.986946725403501e-33 3.2299429882476334 2.5234425406303334e-39 0.0491764449325809 -1.1744326504960513e-38 3.2299429882476334" Properties=species:S:1:pos:R:3:force:R:3 virial="1.0777848982018678 -0.03269360009234709 0.5507086814644125 -0.03269360009234709 0.4767633935121518 -0.106752424757789 0.5507086814644125 -0.106752424757789 1.0475766840250218" energy=-11.914992243520246 config_type=FLD_bcc pbc="F F F"
Ti      -0.07102156      -0.05255968       0.01915560      -0.17190360       0.28721335      -0.10214155 
Ti       1.49624680       1.63694621       1.60093568       0.17190360      -0.28721335       0.10214155 
2
Lattice="3.2299429882476334 4.986946725403501e-33 0.06612632670601541 -4.986946725403501e-33 3.2299429882476334 2.5234425406303334e-39 -1.0213943328456814e-38 -1.1744326504960513e-38 3.2299429882476334" Properties=species:S:1:pos:R:3:force:R:3 virial="1.063928497946554 0.17266007948424217 0.42528784908329376 0.17266007948424217 0.5543688038461152 0.15941315474733095 0.42528784908329376 0.15941315474733095 1.0828845978129342" energy=-11.90294975994319 config_type=FLD_bcc pbc="F F F"
Ti       0.01581625       0.04768919      -0.02300371      -0.34058815      -0.28563632      -0.29522450 
Ti       1.56485184       1.55099730       1.56680691       0.34058815       0.28563632       0.29522450 
2
Lattice="3.2299429882476334 0.08668007942857398 1.332962585362488e-38 -4.986946725403501e-33 3.2299429882476334 2.5234425406303334e-39 -1.0213943328456814e-38 -1.1744326504960513e-38 3.2299429882476334" Properties=species:S:1:pos:R:3:force:R:3 virial="1.1994994724152823 0.7126898432264697 0.0626912425973287 0.7126898432264697 1.298587826587589 0.19770385837053803 0.0626912425973287 0.19770385837053803 0.5146890078712119" energy=-11.893484651504314 config_type=FLD_bcc pbc="F F F"
Ti      -0.01256394       0.05280721       0.05791981      -0.18622295      -0.41265276      -0.49509317 
Ti       1.57016355       1.62226979       1.53520671       0.18622295       0.41265276       0.49509317 
2
Lattice="3.2299429882476334 4.986946725403501e-33 1.332962585362488e-38 -4.986946725403501e-33 3.2299429882476334 2.5234425406303334e-39 -1.0213943328456814e-38 0.039907113620801266 3.2299429882476334" Properties=species:S:1:pos:R:3:force:R:3 virial="0.7723142023914491 -0.006637551207136336 0.051793882473015466 -0.006637551207136336 0.682944277357235 -0.20260500040898066 0.051793882473015466 -0.20260500040898066 0.6858642684509579" energy=-11.915598137534378 config_type=FLD_bcc pbc="F F F"
Ti      -0.02868354       0.03988412       0.01267220       0.20760353      -0.03604926       0.17865893 
Ti       1.72552929       1.66861794       1.65901585      -0.20760353       0.03604926      -0.17865893 
2
Lattice="3.251693446080951 5.020528858234501e-33 1.341938764388498e-38 -5.020528858234501e-33 3.251693446080951 -0.004056130371353196 -1.0282724091611405e-38 -1.1823412878731292e-38 3.251693446080951" Properties=species:S:1:pos:R:3:force:R:3 virial="0.11362494786512034 -0.003137913371376635 -0.01016610693086181 -0.003137913371376635 0.20594190729027684 0.02258805875669499 -0.01016610693086181 0.02258805875669499 0.20579449390262639" energy=-11.934322485525076 config_type=FLD_bcc pbc="F F F"
Ti      -0.08339608       0.00940152       0.00434507       0.03849176      -0.01213685      -0.04110912 
Ti       1.62782348       1.63273062       1.61958918      -0.03849176       0.01213685       0.04110912 
2
Lattice="3.251693446080951 0.045683403639341896 1.341938764388498e-38 -5.020528858234501e-33 3.251693446080951 2.540435419691817e-39 -1.0282724091611405e-38 -1.1823412878731292e-38 3.251693446080951" Properties=species:S:1:pos:R:3:force:R:3 virial="0.512479999332486 0.7139658287390084 -1.6371014328777148e-05 0.7139658287390084 0.5313091127939069 -0.001631954040141803 -1.6371014328777148e-05 -0.001631954040141803 -0.08964852684979618" energy=-11.943410032530918 config_type=FLD_bcc pbc="F F F"
Ti       0.04095725      -0.03360711      -0.02475713      -0.00521569       0.06930442      -0.02582780 
Ti       1.66966072       1.63712760       1.59354192       0.00521569      -0.06930442       0.02582780 
2