16
Lattice="5.9 0.0 0.0 -2.95 5.109549882328188 0.0 0.0 0.0 9.369200000000001" Properties=species:S:1:pos:R:3:momenta:R:3:masses:R:1:force:R:3:forces:R:3 energy=-88.1017070984 config_type=HMD_iter4 pbc="T T T"
Ti      -0.58817898       0.67292154      -0.35916666       3.94687517       1.41820267      -0.17331011      47.86700000       0.84953349      -0.79150961       1.33513602       0.84953349      -0.79150961       1.33513602 
Ti       0.57555773       1.61735255       2.96488188      -3.40808676       5.07495446       1.04300401      47.86700000      -1.51215756       1.28369066      -0.89949959      -1.51215756       1.28369066      -0.89949959 
Ti       2.93514475       0.43651094       0.08410058      -0.24216855       5.60087530      -6.59917521      47.86700000      -0.62865563      -0.43921827      -0.69835032      -0.62865563      -0.43921827      -0.69835032 
Ti       2.81567056       2.32070930       2.52290479      -5.46340571      -2.59811767       5.04083132      47.86700000       0.55260344      -0.36595459      -0.81327594       0.55260344      -0.36595459      -0.81327594 
Ti      -1.91366908       3.23773377      -0.36692844      -3.33130326       5.88866839      -3.05854784      47.86700000      -0.09794191       0.35806091      -0.56885058      -0.09794191       0.35806091      -0.56885058 
Ti      -1.99207957       4.27372131       1.88114042       4.25532066       4.00298488       0.80000317      47.86700000       1.08932582       0.65492891       0.61669007       1.08932582       0.65492891       0.61669007 
Ti       1.41768976       2.47097465       0.60515220      -0.19658473       0.45570278      -3.73005916      47.86700000      -0.88631224       1.30525662      -0.39410987      -0.88631224       1.30525662      -0.39410987 
Ti       1.31488746       4.85783976       2.47228709      -0.72225119      -4.11407578       2.56293445      47.86700000      -0.23884057      -0.50009545      -0.68265769      -0.23884057      -0.50009545      -0.68265769 
Ti      -0.52025221      -0.37101641       4.46546933       1.89466083      -0.66631917       0.44097995      47.86700000       0.82937166      -0.76660018       0.64530798       0.82937166      -0.76660018       0.64530798 
Ti       0.20171047       0.90894921       6.84712001       1.21495569       1.39235915       5.21523637      47.86700000       1.53877060      -0.40872223       1.32927471       1.53877060      -0.40872223       1.32927471 
Ti       2.62887789       0.15131397       4.04400783      -2.75008011       2.99202515      -2.34479631      47.86700000      -0.45172093      -1.99228930       0.73004486      -0.45172093      -1.99228930       0.73004486 
Ti       4.04161525       1.84824794       7.09091932       5.47279643      -4.89702426       0.37546382      47.86700000      -2.89253495      -2.37014837      -0.43053003      -2.89253495      -2.37014837      -0.43053003 
Ti      -1.64574417       2.12444419       4.77497189       2.00350467      -4.43091713      -0.71261525      47.86700000       1.04195805       1.68855396      -0.42935156       1.04195805       1.68855396      -0.42935156 
Ti      -0.95707852       4.00900545       6.44113598       0.05826411      -9.00113506      -4.92942502      47.86700000       1.54999892       0.34631857       0.57840327       1.54999892       0.34631857       0.57840327 
Ti       1.37791638       2.21945741       5.18283976      -2.06191834       0.14756944       3.58118709      47.86700000      -0.06012834       0.61846572      -0.26871376      -0.06012834       0.61846572      -0.26871376 
Ti       2.10793229       3.28550031       7.56436402      -0.67057891      -1.26575313       2.48828872      47.86700000      -0.68326985       1.37926265      -0.04951756      -0.68326985       1.37926265      -0.04951756 
