16
Lattice="5.9 0.0 0.0 -2.95 5.109549882328188 0.0 0.0 0.0 9.369200000000001" Properties=species:S:1:pos:R:3:momenta:R:3:masses:R:1:force:R:3:forces:R:3 energy=-90.4138295089 config_type=HMD_iter6 pbc="T T T"
Ti      -0.61467969      -0.20966481       0.27838396       4.19389791     -10.14631098      -0.43422088      47.86700000       3.27943463       0.14585060      -1.10147906       3.27943463       0.14585060      -1.10147906 
Ti       0.42157087       2.21106178       2.07455138       4.72327811       3.55118234      -2.53490504      47.86700000       0.12865995       0.06028005       0.14819910       0.12865995       0.06028005       0.14819910 
Ti       3.02034267      -0.19386359       0.18211359      -2.42152169      -0.24340701       7.06846720      47.86700000      -1.71756462      -0.26079157      -0.94436734      -1.71756462      -0.26079157      -0.94436734 
Ti       3.26048705       1.69255342       2.13184165       0.13257852       1.74982442      -9.65697582      47.86700000      -3.98296847      -0.99299948       4.80895103      -3.98296847      -0.99299948       4.80895103 
Ti      -1.38028015       2.41869838       0.52241658      -3.80606613       8.42324048       1.22202591      47.86700000       3.44175504       2.69439562      -6.99068533       3.44175504       2.69439562      -6.99068533 
Ti      -1.37694742       4.64421910       2.38232356       3.15377556       1.40748992       1.23587980      47.86700000      -0.30601163      -0.51890209       0.61380090      -0.30601163      -0.51890209       0.61380090 
Ti       1.41012567       2.39940941      -0.00866556       1.75738597      -1.17651585       6.92987201      47.86700000      -0.76136751      -1.00926449       0.19352532      -0.76136751      -1.00926449       0.19352532 
Ti       1.91254821       4.68256818       2.74564430      -0.89453626      -2.92754060      -1.53942758      47.86700000      -0.05929298      -0.24141199      -0.32047459      -0.05929298      -0.24141199      -0.32047459 
Ti       0.22632714       0.55808580       5.14174053      10.95375548      -2.43252490      -7.21036676      47.86700000       2.26380612      -2.58017169      -2.71704268       2.26380612      -2.58017169      -2.71704268 
Ti      -0.62522597       1.47612506       6.99730587      -2.58136930       2.27021035      -2.41883562      47.86700000      -0.69979868       0.53209480       3.26231901      -0.69979868       0.53209480       3.26231901 
Ti       3.12288817       0.36451032       4.59357915       0.48620689       3.53052641       3.45740551      47.86700000       0.04577870      -1.90393425       0.42153109       0.04577870      -1.90393425       0.42153109 
Ti       2.57566350       1.78384734       6.75342391      -1.17007671      -5.35566697       1.04766823      47.86700000      -0.66774690      -1.85755150       1.16341784      -0.66774690      -1.85755150       1.16341784 
Ti      -1.21857250       2.15742184       4.48274515      -3.47724749      -0.19822327      -2.01460524      47.86700000      -0.23362497       2.58093013      -0.69576476      -0.23362497       2.58093013      -0.69576476 
Ti      -1.97050266       3.57892037       6.42334850      -5.79141884      -1.95202082       6.24450320      47.86700000       0.17876321       1.76511091       2.23062043       0.17876321       1.76511091       2.23062043 
Ti       2.06097545       2.63677473       4.41177390      -3.12698181       3.88448483      -3.47079861      47.86700000      -0.94849390       0.83594523       0.66023863      -0.94849390       0.83594523       0.66023863 
Ti       0.97527963       3.86299857       7.10267352      -2.13166020      -0.38474835       2.07431369      47.86700000       0.03867203       0.75041973      -0.73278960       0.03867203       0.75041973      -0.73278960 
