16
Lattice="5.9 0.0 0.0 -2.95 5.109549882328188 0.0 0.0 0.0 9.369200000000001" Properties=species:S:1:pos:R:3:momenta:R:3:masses:R:1:force:R:3:forces:R:3 energy=-90.5228752434 config_type=HMD_iter7 pbc="T T T"
Ti      -0.02049423      -0.49806802      -0.02184127      -4.32542045      -0.43643798       3.56866003      47.86700000      -0.07579196       0.19753443       0.47944769      -0.07579196       0.19753443       0.47944769 
Ti      -0.07481249       2.49737055       2.72840391       1.71193615       0.99348919       2.12229709      47.86700000      -0.44437091      -0.45863266      -1.89562323      -0.44437091      -0.45863266      -1.89562323 
Ti       3.09108228      -0.09274806       0.29154407       1.37271199      -1.48528146      -1.48596028      47.86700000       0.14424390       0.76769330       0.00513232       0.14424390       0.76769330       0.00513232 
Ti       2.84834764       2.39587600       1.93133811      -2.55322548       0.53565060       1.64953119      47.86700000       1.17842316       0.19715941      -0.03692431       1.17842316       0.19715941      -0.03692431 
Ti      -1.03064609       2.76594403      -0.37406649       2.20832545      -3.02799141       2.08517651      47.86700000      -1.00386144      -1.60119370       0.37954053      -1.00386144      -1.60119370       0.37954053 
Ti      -1.56566838       5.27997470       2.66117065       4.29139027       4.43097781       2.18593848      47.86700000       0.10006507      -1.24950708      -0.97020397       0.10006507      -1.24950708      -0.97020397 
Ti       1.51035881       1.60136810      -0.13106269       3.73119620       2.24181429     -11.84175901      47.86700000       0.59667431       0.57190889       0.29636810       0.59667431       0.57190889       0.29636810 
Ti       1.36702686       4.69493361       2.60629031      -0.19037452       6.64540795       2.42815296      47.86700000       0.48178138       1.25436744      -0.18461730       0.48178138       1.25436744      -0.18461730 
Ti      -0.22203680       0.35551721       4.70429006       4.17529047      -1.90939967       1.70685011      47.86700000       1.02057301      -0.47061416       0.05082471       1.02057301      -0.47061416       0.05082471 
Ti       0.03104116       1.60655956       7.04552326     -13.43663435      -2.36374870       0.54454770      47.86700000      -0.88349297      -0.18152105      -0.05945651      -0.88349297      -0.18152105      -0.05945651 
Ti       3.22659106      -0.62507958       4.81892200       0.47753528      -7.17209612      -7.27403593      47.86700000      -0.59364161       0.68628958       0.22226521      -0.59364161       0.68628958       0.22226521 
Ti       2.94334239       1.12829545       6.50718548       6.76039603       0.83916836       5.61334331      47.86700000       0.04580254       1.09697414       2.29042698       0.04580254       1.09697414       2.29042698 
Ti      -1.73042540       2.53017667       4.84338697      -5.76127992       0.06428294       2.53507595      47.86700000       0.93105402       0.20319790      -1.31224609       0.93105402       0.20319790      -1.31224609 
Ti      -1.70350319       4.20522290       6.60767884       1.94906174       0.85646769      -0.99820998      47.86700000      -0.48328813      -0.42237178       1.76109977      -0.48328813      -0.42237178       1.76109977 
Ti       1.96063604       2.45246289       4.34134552       1.67479160      -1.62509140      -0.88055409      47.86700000      -1.49113145      -0.77248905       0.95798565      -1.49113145      -0.77248905       0.95798565 
Ti       1.16916035       3.76585988       7.65509126      -2.08570046       1.41278790      -1.95905404      47.86700000       0.47696107       0.18120440      -1.98401953       0.47696107       0.18120440      -1.98401953 
