16
Lattice="5.9 0.0 0.0 -2.95 5.109549882328188 0.0 0.0 0.0 9.369200000000001" Properties=species:S:1:pos:R:3:momenta:R:3:masses:R:1:force:R:3:forces:R:3 energy=-90.7390674469 config_type=HMD_iter12 pbc="T T T"
Ti      -0.60940716      -0.29918759       0.26129113       2.17225602       1.58291987       2.78756871      47.86700000       0.80138134       0.33871991       0.15023862       0.80138134       0.33871991       0.15023862 
Ti       0.22185131       1.82424455       2.05747091       6.27987579       1.70576714      -2.56454763      47.86700000      -0.12776182       0.12003485      -1.14250461      -0.12776182       0.12003485      -1.14250461 
Ti       2.41403047       0.02122130       0.68068868      -2.30538498      -6.71581710      -1.94827490      47.86700000       0.88463128      -0.57093877       0.15110838       0.88463128      -0.57093877       0.15110838 
Ti       3.10439088       1.97148939       1.84713227       3.99986778       6.09457112      -2.31380590      47.86700000      -0.40483324      -0.25084183       1.17841354      -0.40483324      -0.25084183       1.17841354 
Ti      -1.53589263       2.45789094      -0.49864959      -1.26186188      -1.05582282       1.51532823      47.86700000      -0.60649890      -0.34791967       0.66889741      -0.60649890      -0.34791967       0.66889741 
Ti      -1.55524693       4.18964167       2.50804866       1.44479603       1.84010482      -1.10615935      47.86700000      -0.24630350       0.44443260       0.50142985      -0.24630350       0.44443260       0.50142985 
Ti       1.10813943       2.56450389      -0.63941733      -7.79419231      -2.42491172       4.17602529      47.86700000       0.06759190      -0.25749403       1.03480332       0.06759190      -0.25749403       1.03480332 
Ti       1.64950488       4.33154788       2.91828606       4.57896337      -3.15143115      -5.05371850      47.86700000       0.04245464      -0.31487195      -0.20458044       0.04245464      -0.31487195      -0.20458044 
Ti       0.58031882      -0.86984326       5.60797527      -6.59134940      -8.50257039       1.08608064      47.86700000      -1.18850513      -0.38926497      -1.33193739      -1.18850513      -0.38926497      -1.33193739 
Ti       0.18380723       2.73380530       6.52924716      -2.08165454       5.78751138       2.08979084      47.86700000      -1.09993992      -1.53147100       0.58114207      -1.09993992      -1.53147100       0.58114207 
Ti       2.89306523      -0.12295881       4.54738642       5.13794171      -3.67541956       5.87170304      47.86700000       0.59767021      -0.54094760       1.00455177       0.59767021      -0.54094760       1.00455177 
Ti       2.78303205       2.17670257       7.04353904      -3.32911569       5.25805368      -7.12062453      47.86700000       0.28453059      -0.09568291      -0.99119137       0.28453059      -0.09568291      -0.99119137 
Ti      -1.11120482       1.85888389       4.18765098       2.13410289      -0.23269323      -5.28984453      47.86700000      -0.42484158       0.41636652       0.54749986      -0.42484158       0.41636652       0.54749986 
Ti      -1.16183263       4.87200208       7.88169466       1.07065128       2.42715163      -1.04623513      47.86700000      -0.37098693       0.45576758      -1.62712500      -0.37098693       0.45576758      -1.62712500 
Ti       1.20537772       1.58904439       4.45813399      -5.00957337       1.98464580       3.50637578      47.86700000       0.58379570       1.16528161      -0.77436679       0.58379570       1.16528161      -0.77436679 
Ti       1.63006615       4.76467769       6.82472170       1.55467730      -0.92205948       5.41033794      47.86700000       1.20761536       1.35882965       0.25362079       1.20761536       1.35882965       0.25362079 
