16
Lattice="5.9 0.0 0.0 -2.95 5.109549882328188 0.0 0.0 0.0 9.369200000000001" Properties=species:S:1:pos:R:3:momenta:R:3:masses:R:1:force:R:3:forces:R:3 energy=-82.6607470742 config_type=HMD_iter1 pbc="T T T"
Ti      -0.55473572      -0.38059878       0.70031742       4.59912348      -0.72925159       3.79957956      47.86700000       6.56751218       2.68095724      -7.71450581       6.56751218       2.68095724      -7.71450581 
Ti      -0.41665067       1.72351281       2.04179248       2.05522539      -0.22985146      -4.68570104      47.86700000       0.90684480       0.09151301       1.49523970       0.90684480       0.09151301       1.49523970 
Ti       2.54588628       0.64160195      -0.43405253       0.29303212       3.79722121      -4.00945584      47.86700000      -0.22880295     -14.72405388       1.48003792      -0.22880295     -14.72405388       1.48003792 
Ti       2.76887237       2.11706088       1.95080169       0.96414789       1.15214964      -5.33316899      47.86700000      -0.61369559      -0.72099786       1.57474334      -0.61369559      -0.72099786       1.57474334 
Ti      -0.51477731       2.79707209      -0.43487795       1.55101972      -1.05145221      -2.90814141      47.86700000       0.71841652       0.70402366       1.39892028       0.71841652       0.70402366       1.39892028 
Ti      -1.56070820       4.43545170       3.53271990      -1.12837116      -5.74100739      -2.43536186      47.86700000       1.39010007      -1.48305259      -5.53635773       1.39010007      -1.48305259      -5.53635773 
Ti       2.56488393       2.55143155      -0.59187479       7.64807458       4.78806731      -3.90148506      47.86700000       0.22364357      13.28568444      -1.40876494       0.22364357      13.28568444      -1.40876494 
Ti       0.99162564       4.34510775       2.31182484      -7.31971089      -0.01637156       1.79273338      47.86700000      -5.54492435      -1.37801013       6.40347855      -5.54492435      -1.37801013       6.40347855 
Ti       0.37618570       0.45485448       5.13731038      -4.06975055       3.95957483       6.75637648      47.86700000      -1.39411608       1.03352161       2.20752931      -1.39411608       1.03352161       2.20752931 
Ti      -0.85532183       1.32038452       7.11702784      -3.62998853      -5.97176588      -4.43393175      47.86700000       2.88363513      -0.01412295       1.97223399       2.88363513      -0.01412295       1.97223399 
Ti       3.72747966       0.08144244       5.03418618       0.67703905       4.18958212       4.16065465      47.86700000      -1.72157513      -3.32823278      -0.22433970      -1.72157513      -3.32823278      -0.22433970 
Ti       2.82480140       1.41716573       6.69141279      -9.53500213      -3.80404574       6.85976345      47.86700000      -2.42869209       0.12155478      -0.04431420      -2.42869209       0.12155478      -0.04431420 
Ti      -1.78802900       2.21974436       4.61566310       4.24791666      -0.77897272      -2.24490824      47.86700000       1.77156937       3.72207609      -1.13169382       1.77156937       3.72207609      -1.13169382 
Ti      -1.10765797       3.95860385       6.68518350       5.02856320       4.86852136       2.46312558      47.86700000      -1.62500218      -0.60024161       0.61892887      -1.62500218      -0.60024161       0.61892887 
Ti       1.48893558       2.51894339       4.63883314       0.29019326       3.97613789      -0.47598045      47.86700000      -1.01773300       0.69836012      -1.53957187      -1.01773300       0.69836012      -1.53957187 
Ti       1.30921014       3.86188717       7.21893201      -1.67151207      -8.40853580       4.59590154      47.86700000       0.11281973      -0.08897914       0.44843610       0.11281973      -0.08897914       0.44843610 
