16
Lattice="5.9 0.0 0.0 -2.95 5.109549882328188 0.0 0.0 0.0 9.369200000000001" Properties=species:S:1:pos:R:3:momenta:R:3:masses:R:1:force:R:3:forces:R:3 energy=-89.3212014364 config_type=HMD_iter14 pbc="T T T"
Ti      -0.12550629       0.74633596       0.01231067       2.42843882      -5.84837770       3.46625121      47.86700000       0.13728118      -1.96513232      -0.56564662       0.13728118      -1.96513232      -0.56564662 
Ti       0.34290769       2.35813309       2.26110071       3.65754246       0.98309002     -11.11881082      47.86700000      -0.26496627      -1.79599363       0.04475545      -0.26496627      -1.79599363       0.04475545 
Ti       2.05859350      -0.67117258      -0.15811908      -1.27145733       2.99839149      -1.48059896      47.86700000       1.82264924       1.80842530       0.38299534       1.82264924       1.80842530       0.38299534 
Ti       3.30893361       1.34933868       2.24628611       2.23526715       3.77200982      -2.40847391      47.86700000      -0.68745073      -0.10891074       0.68895276      -0.68745073      -0.10891074       0.68895276 
Ti      -1.96775281       2.08304561      -0.14327237      -0.60456301       2.13111805       4.09462000      47.86700000      -1.17668603       0.12268429      -0.24606804      -1.17668603       0.12268429      -0.24606804 
Ti      -1.62072158       4.07261085       2.57316265      -0.58693201      -3.42912222       5.72608724      47.86700000       0.96423614       0.11049502      -2.74003172       0.96423614       0.11049502      -2.74003172 
Ti       1.36884972       2.86624003      -0.21928334       1.58550889       2.55817890      -1.83864960      47.86700000       0.92818992       1.03955360       0.22641316       0.92818992       1.03955360       0.22641316 
Ti       1.92556025       4.31195464       2.29120238       1.51306155       1.83541989       6.04856837      47.86700000       0.66414577       0.40140728       0.10570361       0.66414577       0.40140728       0.10570361 
Ti       0.84965647      -0.51385605       4.69520075       7.32248382      -4.14133190       1.42596890      47.86700000      -2.02894949       0.68742112       2.31816507      -2.02894949       0.68742112       2.31816507 
Ti      -0.33575418       2.57779561       7.16544805      -5.82578994       3.45568212       3.45276946      47.86700000      -0.01758425       0.66287708      -0.82893660      -0.01758425       0.66287708      -0.82893660 
Ti       3.47143417      -0.76959178       4.57437449      -5.41812567      -1.23944352      -2.54574479      47.86700000       0.03561741       0.85292175       0.73535290       0.03561741       0.85292175       0.73535290 
Ti       2.22135684       1.55628956       7.26370896      -1.10137824       0.81010082      -1.48777784      47.86700000       0.96365633       1.42943746      -1.32331508       0.96365633       1.42943746      -1.32331508 
Ti      -0.80500479       1.97230128       4.49827032       1.31148250      -4.18945399      -5.03193780      47.86700000      -1.03489436      -0.63051674       0.35683276      -1.03489436      -0.63051674       0.35683276 
Ti      -2.28554443       4.81154500       7.38814296      -3.64608072       0.62855827       3.60107751      47.86700000       7.24243239      -3.23983929      -0.43675019       7.24243239      -3.23983929      -0.43675019 
Ti       1.89524796       2.19275884       4.25057215      -2.86636344      -2.12068872      -2.17721830      47.86700000       1.20880609      -0.19849974       1.32660558       1.20880609      -0.19849974       1.32660558 
Ti       1.49774386       5.11993716       7.51609459       1.26690516       1.79586866       0.27386932      47.86700000      -8.75648333       0.82366957      -0.04502838      -8.75648333       0.82366957      -0.04502838 
