16
Lattice="5.9 0.0 0.0 -2.95 5.109549882328188 0.0 0.0 0.0 9.369200000000001" Properties=species:S:1:pos:R:3:momenta:R:3:masses:R:1:force:R:3:forces:R:3 energy=-89.8199635929 config_type=HMD_iter8 pbc="T T T"
Ti       0.83098445       0.51523714       0.47743281       1.31547124       3.80033393       4.17765325      47.86700000      -1.09297363      -0.13373499       0.19703340      -1.09297363      -0.13373499       0.19703340 
Ti       0.21966196       1.84175380       2.29997531       1.51572211       4.17314660       1.11289509      47.86700000      -0.29690138      -1.09481279       0.64455392      -0.29690138      -1.09481279       0.64455392 
Ti       2.92915218       0.68108974      -0.54016894       5.83586682      -5.81392576      -5.79142174      47.86700000       0.93536776      -1.31167437      -0.29030377       0.93536776      -1.31167437      -0.29030377 
Ti       2.91868303       1.62290841       1.93397241      -1.55034507       2.66277946      -1.86342378      47.86700000       0.76303981      -1.41549891       1.81977263       0.76303981      -1.41549891       1.81977263 
Ti      -1.08332549       3.02699891       0.52051986       1.69307982       0.59094312       2.61922649      47.86700000      -0.06774234       0.18373929      -0.52796535      -0.06774234       0.18373929      -0.52796535 
Ti      -1.39222136       3.97449643       2.74644246       0.98418322      -3.51022203       0.10063250      47.86700000      -0.24702685       0.50826837       0.49373937      -0.24702685       0.50826837       0.49373937 
Ti       1.68137666       2.76536239       0.45217473      -1.48465135       4.73634595       4.64491827      47.86700000       0.67143482      -3.61204004      -8.31133017       0.67143482      -3.61204004      -8.31133017 
Ti       1.31072806       4.32745587       1.87816695       1.84519264      -3.75255492      -1.47793316      47.86700000      -0.74799742       6.64617850       4.97496248      -0.74799742       6.64617850       4.97496248 
Ti       0.84713536       0.68027628       4.74377677       3.30111640       6.74451570      -2.87463021      47.86700000      -0.84039895      -0.04289401      -0.26539955      -0.84039895      -0.04289401      -0.26539955 
Ti      -0.14054306       1.72825828       7.22481062       0.36346747      -2.40279301       4.17225227      47.86700000      -0.03008576       0.54411675       0.95270451      -0.03008576       0.54411675       0.95270451 
Ti       2.12467754      -1.52695794       5.60889533      -0.78037944      -7.21403913      -0.46345402      47.86700000       0.27705880       0.20760186      -1.09876879       0.27705880       0.20760186      -1.09876879 
Ti       2.56098264       1.41361634       6.31748101      -6.62006191      -0.91148699      -4.89017549      47.86700000      -0.44233418       0.39730778       0.11985927      -0.44233418       0.39730778       0.11985927 
Ti      -2.05499715       1.36939026       4.36703969     -14.69799716      -4.56205282      -5.98637776      47.86700000       0.11783132      -1.22674830      -0.05792549       0.11783132      -1.22674830      -0.05792549 
Ti      -2.41176249       3.49261609       7.68121761       5.21675429      -1.40324974       3.56020534      47.86700000       0.83258740       0.99958520       0.12840380       0.83258740       0.99958520       0.12840380 
Ti       1.85861601       3.34875133       4.22057602       0.22676558      -1.07752688      -0.99102384      47.86700000       0.23796995       0.11713649       0.28094264       0.23796995       0.11713649       0.28094264 
Ti       1.60085165       4.80241254       6.28288736       2.83581533       7.93978655       3.95065679      47.86700000      -0.06982934      -0.76653083       0.93972110      -0.06982934      -0.76653083       0.93972110 
