16
Lattice="5.9 0.0 0.0 -2.95 5.109549882328188 0.0 0.0 0.0 9.369200000000001" Properties=species:S:1:pos:R:3:momenta:R:3:masses:R:1:force:R:3:forces:R:3 energy=-87.5024857087 config_type=HMD_iter15 pbc="T T T"
Ti      -0.57543121       0.68998386       0.17572708      -3.57051974       3.18812786      -5.96766190      47.86700000       0.71570513       0.43714021       0.02930598       0.71570513       0.43714021       0.02930598 
Ti       0.17810306       2.58361233       2.61104498      -1.27115181       6.67066549       5.11544899      47.86700000      -0.05235130      -0.59874897       0.22271535      -0.05235130      -0.59874897       0.22271535 
Ti       2.91044515      -0.44974965       0.04445775       2.02519314      -2.84379132      -2.75590485      47.86700000       0.34547647      -2.39649785       0.59869068       0.34547647      -2.39649785       0.59869068 
Ti       4.12982193       1.63775216       1.85906133       5.39855638       0.15336529       5.91728357      47.86700000      -1.11358528       0.02289827       0.87617635      -1.11358528       0.02289827       0.87617635 
Ti      -2.06982420       3.75519965      -0.61387656      -1.20832627       0.53919606       0.26641681      47.86700000       0.59944434      -0.77781136       0.72922459       0.59944434      -0.77781136       0.72922459 
Ti      -1.73053393       4.73347273       2.32865582      -0.44641402       0.05266506      -0.07071623      47.86700000      -1.30013276       0.22400218      -6.01261437      -1.30013276       0.22400218      -6.01261437 
Ti       1.92262843       1.92477865       1.00441442      -2.23235491      -5.42358246       0.63423840      47.86700000      -0.95899678       0.57226702      -2.03676351      -0.95899678       0.57226702      -2.03676351 
Ti       2.20096789       3.85797072       2.59541730       1.14367334      -3.87929213      -5.24227030      47.86700000      -4.94774562      -1.80489925       0.19922924      -4.94774562      -1.80489925       0.19922924 
Ti      -0.33364077      -0.25414840       4.70323748      -2.50710840      -6.13671383       1.60404185      47.86700000      -0.30721031       1.59765699      -0.79337891      -0.30721031       1.59765699      -0.79337891 
Ti       0.05314546       0.98134974       7.15799270       3.99572690       4.86030497       5.11956765      47.86700000      -0.90930470       1.49073113       0.32555702      -0.90930470       1.49073113       0.32555702 
Ti       2.78602151       0.02024940       3.72377362       2.28995670       1.91838695      -6.92257031      47.86700000       5.97933717       2.12047922       6.01375698       5.97933717       2.12047922       6.01375698 
Ti       2.66636543       1.23533299       7.59990087       2.71066934       0.68183316       1.41307719      47.86700000       1.09288810       1.14019264      -0.85494817       1.09288810       1.14019264      -0.85494817 
Ti      -2.09000617       2.49666503       4.90356232       1.62479287       7.92068968       0.15563729      47.86700000       0.99863670      -0.81489073      -0.23665441       0.99863670      -0.81489073      -0.23665441 
Ti      -1.08538203       4.46380052       6.27022669      -6.47146266      -2.60812791      -1.74613492      47.86700000       0.24618852      -0.25163084      -0.11876569       0.24618852      -0.25163084      -0.11876569 
Ti       1.17050429       2.43682651       5.16713163      -1.52794905       0.63659986       3.24775494      47.86700000      -1.61967067      -3.93677458      -4.53134863      -1.61967067      -3.93677458      -4.53134863 
Ti       1.66681516       3.95056964       6.68447258       0.04671820      -5.73032672      -0.76820818      47.86700000       1.23132099       2.97588592       5.58981751       1.23132099       2.97588592       5.58981751 
