16
Lattice="5.9 0.0 0.0 -2.95 5.109549882328188 0.0 0.0 0.0 9.369200000000001" Properties=species:S:1:pos:R:3:momenta:R:3:masses:R:1:force:R:3:forces:R:3 energy=-89.1591988528 config_type=HMD_iter10 pbc="T T T"
Ti       0.82667579      -0.07312960       0.70457985       3.92274477       3.53465677      -0.90487514      47.86700000       0.18032660      -0.13213039      -0.61488454       0.18032660      -0.13213039      -0.61488454 
Ti      -0.09944354       1.86354846       2.42058991      -1.76306175      -3.80204699       2.46314019      47.86700000       0.09810726       0.94212779       0.64623415       0.09810726       0.94212779       0.64623415 
Ti       3.65351483       0.46556303      -0.28444044       5.42847276       1.43714788      -1.66725397      47.86700000      -1.61919803      -4.51905081      -0.76070340      -1.61919803      -4.51905081      -0.76070340 
Ti       2.74222154       1.46265963       1.72453115      -5.58074776       0.10076561       5.22875090      47.86700000      -0.08765044       1.78952075       0.82805817      -0.08765044       1.78952075       0.82805817 
Ti      -1.29525202       2.44473403       0.09499501      -1.52726686       3.05843389       3.08753315      47.86700000       2.15189306       3.90366162       0.40049784       2.15189306       3.90366162       0.40049784 
Ti      -2.22068388       3.81376694       3.52197565       2.51683887      -1.01496723      -4.08636704      47.86700000       6.15212684       1.31710474      -4.30107197       6.15212684       1.31710474      -4.30107197 
Ti       1.87294129       2.91901834      -0.59357081       3.09686728       2.05590731       1.30055883      47.86700000      -0.60886729       0.60710000       1.51301673      -0.60886729       0.60710000       1.51301673 
Ti       1.60044712       4.53381861       2.15694649      -0.56929369       5.94631824      -1.39939759      47.86700000      -0.44208013      -0.95371532      -0.87717058      -0.44208013      -0.95371532      -0.87717058 
Ti       0.51367845       0.77065170       4.93776097       3.25485804      -6.69279645       2.97978163      47.86700000      -1.15256182      -0.96460859       0.09285862      -1.15256182      -0.96460859       0.09285862 
Ti      -0.05160983       1.11925034       7.29570160       1.16237751       3.54561548       4.30610521      47.86700000      -7.23449019       4.53941561       1.64256187      -7.23449019       4.53941561       1.64256187 
Ti       3.00361543       0.09593169       4.04168176      -0.27546225       2.09889525      -5.99792970      47.86700000      -0.04827804      -0.77151470       0.45203337      -0.04827804      -0.77151470       0.45203337 
Ti       2.12969591       1.47149280       7.02630372      -0.73589384      -1.54700924      -2.72268914      47.86700000       4.71906264       0.32360893      -1.37342892       4.71906264       0.32360893      -1.37342892 
Ti      -1.49458264       1.87026839       5.12459523      -1.89780541       0.52106313       0.03841130      47.86700000       0.45015809       1.40366189       0.74816994       0.45015809       1.40366189       0.74816994 
Ti      -1.85400352       4.36285564       7.17959902      -5.08440924      -6.76129955       4.40399399      47.86700000       2.10683812      -6.18290611      -0.69629899       2.10683812      -6.18290611      -0.69629899 
Ti       1.83894691       2.95264636       4.32610375       1.70154255       1.84082618     -10.53555318      47.86700000      -5.19445343      -1.82722415       2.31803337      -5.19445343      -1.82722415       2.31803337 
Ti       0.63383815       3.99058952       6.53784714      -3.64976097      -4.32151029       3.50579055      47.86700000       0.52906675       0.52494872      -0.01790565       0.52906675       0.52494872      -0.01790565 
