16
Lattice="5.9 0.0 0.0 -2.95 5.109549882328188 0.0 0.0 0.0 9.369200000000001" Properties=species:S:1:pos:R:3:momenta:R:3:masses:R:1:force:R:3:forces:R:3 energy=-89.4134334729 config_type=HMD_iter9 pbc="T T T"
Ti       0.06910266       0.70212001       0.21388102      -5.84969643       2.06914701       1.99557417      47.86700000      -2.42163304      -2.47187736       1.30102691      -2.42163304      -2.47187736       1.30102691 
Ti       0.40510354       1.95945082       2.31095204      -6.04832384      -0.91692167      -1.27439090      47.86700000      -1.83343165       1.44160182       0.84588992      -1.83343165       1.44160182       0.84588992 
Ti       2.33541160       0.08835380       0.26122842       1.87790685      -5.04392692       5.89396092      47.86700000       1.03641499      -2.42889518      -5.29849625       1.03641499      -2.42889518      -5.29849625 
Ti       2.82452868       1.23799029       2.06715667       1.10841297      -1.91674394      -1.08864140      47.86700000      -2.19585107       9.00967643       2.10931146      -2.19585107       9.00967643       2.10931146 
Ti      -1.27518412       2.65217753      -0.26745907      -0.74405883       2.81236394      -2.98871842      47.86700000      -0.95560744      -0.50829525       1.01880891      -0.95560744      -0.50829525       1.01880891 
Ti      -1.68899226       4.47185505       2.39168967       2.94666419       1.02460969       1.13643303      47.86700000      -0.04608911      -2.11459125      -0.31623073      -0.04608911      -2.11459125      -0.31623073 
Ti       1.61456269       2.79672959       0.21812942      -1.32575700       0.12997325      -4.22130583      47.86700000      -0.07214073       1.43650812      -0.77424477      -0.07214073       1.43650812      -0.77424477 
Ti       1.21671128       4.80742344       2.75878388       1.44056897       1.65731444       3.32847599      47.86700000       4.88194118      -6.14517778       1.30363748       4.88194118      -6.14517778       1.30363748 
Ti      -0.11625745       0.24568246       5.13461886       3.47933354      -1.45525048      -1.42821869      47.86700000      -0.26311267      -0.67013622      -0.14366154      -0.26311267      -0.67013622      -0.14366154 
Ti       0.56331712       1.52772717       7.54726301      -1.62363803      -2.00231130      -7.51999785      47.86700000       0.28020084       0.96126908      -2.75361151       0.28020084       0.96126908      -2.75361151 
Ti       2.53025848      -0.40621436       4.41495494      -4.08200141       4.86374277      -3.26160489      47.86700000       0.78320733       1.17749700       0.19277441       0.78320733       1.17749700       0.19277441 
Ti       3.37987550       1.30582723       6.66670993       4.62081394       0.45978497       0.20066852      47.86700000      -0.67140517       0.21287032       0.89578519      -0.67140517       0.21287032       0.89578519 
Ti      -1.72065607       2.11035443       4.34927320      -6.43658313       1.49984429       4.69106321      47.86700000      -0.33312754       1.09909552       0.00407355      -0.33312754       1.09909552       0.00407355 
Ti      -1.53077928       3.65391767       6.70558112       4.73644058       0.53759766       1.77279066      47.86700000       1.32018035       0.57125971      -0.01797104       1.32018035       0.57125971      -0.01797104 
Ti       1.30594393       2.69499493       4.42621944       5.01724825      -0.41213093      -1.65522476      47.86700000       1.09628795      -0.59511666       1.39255862       1.09628795      -0.59511666       1.39255862 
Ti       1.88705369       4.21527581       7.01621744       0.88266937      -3.30709277       4.41913622      47.86700000      -0.60583422      -0.97568831       0.24034939      -0.60583422      -0.97568831       0.24034939 
