16
Lattice="5.9 0.0 0.0 -2.95 5.109549882328188 0.0 0.0 0.0 9.369200000000001" Properties=species:S:1:pos:R:3:momenta:R:3:masses:R:1:force:R:3:forces:R:3 energy=-89.8345879055 config_type=HMD_iter13 pbc="T T T"
Ti      -0.38471387      -0.20665635       0.07686648       2.53420190       3.33608060       3.81850423      47.86700000       0.93375107       1.40771907      -0.12936072       0.93375107       1.40771907      -0.12936072 
Ti       0.25942017       2.09853140       2.07515711       0.27448833      -0.25428885       2.10881815      47.86700000       3.35193981      -6.57726963      -3.59143708       3.35193981      -6.57726963      -3.59143708 
Ti       2.82909331       0.20114208       0.35551898      -6.86629621      -0.22866950      -2.34467365      47.86700000      -0.39461378      -1.06232265      -0.52854218      -0.39461378      -1.06232265      -0.52854218 
Ti       3.58029794       1.79915561       2.54500021       4.15626320      -5.46826765      -7.26789203      47.86700000      -0.35319491      -1.19362001      -0.71628462      -0.35319491      -1.19362001      -0.71628462 
Ti      -1.80746506       2.54044359      -0.63097213      -0.12760399       4.52860580       8.03868121      47.86700000       1.25042881       0.28155523       1.88333871       1.25042881       0.28155523       1.88333871 
Ti      -0.65841663       3.95900823       2.74497798       1.80138654       3.58010185      -2.88725721      47.86700000      -2.86600844       8.81519494      -2.97294148      -2.86600844       8.81519494      -2.97294148 
Ti       1.84422834       2.34204145      -0.26948145       7.34906027      -1.78491484      -0.75896252      47.86700000      -0.64063500      -0.46296417      -0.12261881      -0.64063500      -0.46296417      -0.12261881 
Ti       1.91751118       3.75613952       2.70361633      -0.10354154      -3.95471054       4.85530656      47.86700000       0.04982306       1.63660193      -0.46716726       0.04982306       1.63660193      -0.46716726 
Ti       0.14798079       0.77066877       4.14358365       6.38301047      -0.91143994      -1.50527542      47.86700000       0.63114816      -1.76629244       0.84082395       0.63114816      -1.76629244       0.84082395 
Ti      -0.61254931       1.54745602       6.78861919      -3.80229863      -2.20716894       1.46308879      47.86700000       0.64572161      -0.86041976       0.06257505       0.64572161      -0.86041976       0.06257505 
Ti       3.24696458       0.14659477       4.77128991       2.06196172       1.42908802       5.98912651      47.86700000       0.95462937       0.64139368       0.36924401       0.95462937       0.64139368       0.36924401 
Ti       2.70637800       1.20604488       7.26388882      -1.95975004       0.79542419      -2.06470871      47.86700000      -1.45167540       0.52265879       0.95716605      -1.45167540       0.52265879       0.95716605 
Ti      -1.18681046       3.01770682       4.65743115       3.72135336      -5.36279455      -6.01610958      47.86700000      -1.69150855      -2.22814777       4.50852365      -1.69150855      -2.22814777       4.50852365 
Ti      -2.50507382       4.26299547       6.71250601      -5.63248718       0.67986539       1.65037866      47.86700000       0.50339543       0.38543061       0.10568922       0.50339543       0.38543061       0.10568922 
Ti       1.76844394       2.78124624       5.16823943      -2.83832971       3.61234483       0.46172339      47.86700000      -0.62806139      -0.06723258      -0.62662878      -0.62806139      -0.06723258      -0.62662878 
Ti       0.65471088       3.84114738       7.10895833      -6.95141849       2.21074411      -5.54074837      47.86700000      -0.29513984       0.52771476       0.42762030      -0.29513984       0.52771476       0.42762030 
