16
Lattice="5.9 0.0 0.0 -2.95 5.109549882328188 0.0 0.0 0.0 9.369200000000001" Properties=species:S:1:pos:R:3:momenta:R:3:masses:R:1:force:R:3:forces:R:3 energy=-90.366222979 config_type=HMD_iter3 pbc="T T T"
Ti      -0.53817420       0.59476127       0.54438796      -2.05638567       7.30755351       1.05859958      47.86700000      -0.43237827      -1.21572452      -1.15819904      -0.43237827      -1.21572452      -1.15819904 
Ti       0.80087963       1.24406619       2.52730460       0.35550939      -5.09161523       2.37254044      47.86700000      -1.27337295       0.61720706      -0.98871109      -1.27337295       0.61720706      -0.98871109 
Ti       2.58081618       0.87641768       0.14523682       5.67868515       6.85188875      -1.79397354      47.86700000      -0.01115092      -1.21297185      -0.55649401      -0.01115092      -1.21297185      -0.55649401 
Ti       3.14348871       1.69200326       2.34065354      -3.19698596      -4.21180425       5.88211589      47.86700000       1.17819999       0.51816175       0.17788427       1.17819999       0.51816175       0.17788427 
Ti      -2.01714568       2.78540276      -0.14315621      -0.40299188       2.40253920      -7.77317027      47.86700000      -1.33024733       0.08781312      -0.10655997      -1.33024733       0.08781312      -0.10655997 
Ti      -1.26127523       3.91463796       2.30213858      -0.01319319       6.22675198      -3.38573653      47.86700000       1.56152064      -0.35739552      -0.43825118       1.56152064      -0.35739552      -0.43825118 
Ti       0.66511310       2.79816489      -0.67223209       0.66413599       0.40501166       0.53377536      47.86700000       1.85098507       3.75164036       4.37205857       1.85098507       3.75164036       4.37205857 
Ti       1.01640610       4.06186248       2.69209581       3.26541937      -2.90505602       6.36765412      47.86700000       0.21181812      -0.16895003      -1.33393172       0.21181812      -0.16895003      -1.33393172 
Ti      -0.05500154      -0.64105096       4.31037086       4.16967767       4.73821718       6.26857802      47.86700000       1.19788440       0.78802287       1.67446351       1.19788440       0.78802287       1.67446351 
Ti       0.09471585       1.55923961       6.94521762      -0.25314102      -3.77461892       2.67507842      47.86700000      -1.79206511      -0.82646207      -2.73732561      -1.79206511      -0.82646207      -2.73732561 
Ti       3.24125304      -0.17624280       5.09014769       1.78198444      -4.94698670       6.42680950      47.86700000      -0.96278471      -0.57946394      -0.65627288      -0.96278471      -0.57946394      -0.65627288 
Ti       2.90240431       2.06230577       6.69949398      -2.42707248       2.05684570       2.55665891      47.86700000       1.26237739      -0.20756722       0.75692526       1.26237739      -0.20756722       0.75692526 
Ti      -0.82952894       2.17167353       4.65506156      -1.24808226      -3.10344979      -1.09613432      47.86700000      -1.66049985       0.60430392      -0.80739542      -1.66049985       0.60430392      -0.80739542 
Ti      -1.28578118       4.67700300       6.90836330      -2.14638676       2.42214693      -4.53147082      47.86700000       0.28465746      -1.58989917       0.11320318       0.28465746      -1.58989917       0.11320318 
Ti       1.72747720       2.10589393       4.61747201      -1.21264367      -1.39732464      -8.55443144      47.86700000       0.10306434      -0.15954439       0.91210366       0.10306434      -0.15954439       0.91210366 
Ti       1.61435266       4.33752732       7.25264398      -2.95852912      -6.98009936      -7.00689333      47.86700000      -0.18800826      -0.04917035       0.77650247      -0.18800826      -0.04917035       0.77650247 
