16
Lattice="5.9 0.0 0.0 -2.95 5.109549882328188 0.0 0.0 0.0 9.369200000000001" Properties=species:S:1:pos:R:3:momenta:R:3:masses:R:1:force:R:3:forces:R:3 energy=-89.3059079887 config_type=HMD_iter5 pbc="T T T"
Ti      -0.01914569       0.43429371       0.08725107       4.07278238       2.06494104      -1.09069466      47.86700000       0.03335205       1.20477792       1.32733660       0.03335205       1.20477792       1.32733660 
Ti      -0.25817185       2.36769005       2.42788658      -1.58851732      -0.01252804      -3.52179742      47.86700000       0.05539101      -1.41167461       0.13510338       0.05539101      -1.41167461       0.13510338 
Ti       2.39506963       0.15963397      -0.51211712      -8.37620057      -1.84955439      -1.78139478      47.86700000       0.68542419       0.95083994       0.52507024       0.68542419       0.95083994       0.52507024 
Ti       2.72645975       1.87796777       1.93764279      -4.85040467       3.98846833      -2.21606198      47.86700000       0.14229996      -0.35530534       1.13212075       0.14229996      -0.35530534       1.13212075 
Ti      -1.69267898       2.78678532      -0.27447977      -0.39623767       4.68194736      -0.45855983      47.86700000      -0.24418346      -0.58344881       0.14897388      -0.24418346      -0.58344881       0.14897388 
Ti      -1.62935357       4.28644442       1.75946412      -3.16477800       0.69492080       8.06964938      47.86700000      -0.14202727       1.02787893       0.99462671      -0.14202727       1.02787893       0.99462671 
Ti       1.43860821       3.31671230       0.73512459      -3.62003787      -2.83859684       5.29181153      47.86700000      -0.81425062      -0.37217760      -2.56812863      -0.81425062      -0.37217760      -2.56812863 
Ti       1.08691135       4.81182884       2.94501275       1.88301540       5.45596724      -0.12653372      47.86700000       0.09008446       0.40851328      -0.60818585       0.09008446       0.40851328      -0.60818585 
Ti      -0.04690284      -0.81965489       4.23525247      -4.23586401      -2.63628083      -6.08102277      47.86700000       1.26249451      -0.59258793       1.06066419       1.26249451      -0.59258793       1.06066419 
Ti       0.67944582       0.99166098       6.90855860      -1.39847518      -1.94385521       7.73529652      47.86700000       1.24870103      -1.01146340      -1.00718839       1.24870103      -1.01146340      -1.00718839 
Ti       3.32911144      -0.23673631       5.27555296       4.03571966      -0.48437466      -3.11054921      47.86700000      -3.97591488      -4.23804409       0.31153068      -3.97591488      -4.23804409       0.31153068 
Ti       2.74340749       2.85038772       6.70396699       4.89749909       5.46862687       0.71713061      47.86700000      -0.00140447      -0.93385820      -0.03443124      -0.00140447      -0.93385820      -0.03443124 
Ti      -1.26344016       1.44523205       4.71739308       4.50714791      -7.37736478       1.74478277      47.86700000       1.94552665       5.02590610      -0.56188321       1.94552665       5.02590610      -0.56188321 
Ti      -0.64174485       3.23835316       6.97001504       0.72959733      -7.19693017      -3.25405124      47.86700000       0.00865854       0.04951055      -0.16812207       0.00865854       0.04951055      -0.16812207 
Ti       1.38556792       1.84044211       4.78507319       6.47304264      -2.22924962       0.92319384      47.86700000       0.07711515       0.60159789      -0.83708277       0.07711515       0.60159789      -0.83708277 
Ti       1.56685633       4.71262469       7.51360265       1.03171089       4.21386290      -2.84119904      47.86700000      -0.37126684       0.22953537       0.14959572      -0.37126684       0.22953537       0.14959572 
