54
Lattice="4.425 -7.66432482349 0.0 4.425 7.66432482349 0.0 0.0 0.0 14.4519894824" Properties=species:S:1:pos:R:3:damp_mask:I:1:velo:R:3:force:R:3:travel:I:3:thermostat_region:I:1:acc:R:3:mass:R:1:avg_ke:R:1:avgpos:R:3:oldpos:R:3 cutoff=0.0 config_type=hcp_1000K orig_lattice_inv="0.11299435028248586 0.11299435028248586 -0.0 -0.0652373185525195 0.0652373185525195 -0.0 0.0 -0.0 0.06919462550244901" nneightol=1.2 pbc="T T T" time=0.0 virial="-5.063394586407327 -0.000858367674484084 -0.000502100737706859 -0.000858368137215503 -5.236429347145304 9.9485606426573e-05 0.000843293877105415 0.001444883166797185 -13.20841463005641" energy=-327.7235920869364
Ti       0.00000000       0.00000000       0.00000000        1       0.00000000       0.00000000       0.00000000       0.00000073       0.00621219      -0.00000092        0        0        0        1       0.00000000       0.00000125      -0.00000000    4961.06491543       0.00000000       0.00000000       0.00000000       0.00000000       0.00000000       0.00000000       0.00000000 
Ti       1.47500000       0.85159165       2.40866491        1       0.00000000       0.00000000       0.00000000      -0.00000073      -0.00621221       0.00000094        0        0        0        1      -0.00000000      -0.00000125       0.00000000    4961.06491543       0.00000000       1.47500000       0.85159165       2.40866491       1.47500000       0.85159165       2.40866491 
Ti       0.00000000       0.00000000       4.81732983        1       0.00000000       0.00000000       0.00000000       0.00000073       0.00621219      -0.00000094        0        0        0        1       0.00000000       0.00000125      -0.00000000    4961.06491543       0.00000000       0.00000000       0.00000000       4.81732983       0.00000000       0.00000000       4.81732983 
Ti       1.47500000       0.85159165       7.22599474        1       0.00000000       0.00000000       0.00000000      -0.00000073      -0.00621221       0.00000091        0        0        0        1      -0.00000000      -0.00000125       0.00000000    4961.06491543       0.00000000       1.47500000       0.85159165       7.22599474       1.47500000       0.85159165       7.22599474 
Ti       0.00000000       0.00000000       9.63465965        1       0.00000000       0.00000000       0.00000000       0.00000073       0.00621219      -0.00000088        0        0        0        1       0.00000000       0.00000125      -0.00000000    4961.06491543       0.00000000       0.00000000       0.00000000       9.63465965       0.00000000       0.00000000       9.63465965 
Ti       1.47500000       0.85159165      12.04332457        1       0.00000000       0.00000000       0.00000000      -0.00000073      -0.00621221       0.00000089        0        0        0        1      -0.00000000      -0.00000125       0.00000000    4961.06491543       0.00000000       1.47500000       0.85159165      12.04332457       1.47500000       0.85159165      12.04332457 
Ti       1.47500000       2.55477494       0.00000000        1       0.00000000       0.00000000       0.00000000       0.00000073       0.00621220      -0.00000092        0        0        0        1       0.00000000       0.00000125      -0.00000000    4961.06491543       0.00000000       1.47500000       2.55477494       0.00000000       1.47500000       2.55477494       0.00000000 
Ti       2.95000000       3.40636659       2.40866491        1       0.00000000       0.00000000       0.00000000      -0.00000073      -0.00621219       0.00000094        0        0        0        1      -0.00000000      -0.00000125       0.00000000    4961.06491543       0.00000000       2.95000000       3.40636659       2.40866491       2.95000000       3.40636659       2.40866491 
Ti       1.47500000       2.55477494       4.81732983        1       0.00000000       0.00000000       0.00000000       0.00000073       0.00621220      -0.00000094        0        0        0        1       0.00000000       0.00000125      -0.00000000    4961.06491543       0.00000000       1.47500000       2.55477494       4.81732983       1.47500000       2.55477494       4.81732983 
Ti       2.95000000       3.40636659       7.22599474        1       0.00000000       0.00000000       0.00000000      -0.00000073      -0.00621219       0.00000091        0        0        0        1      -0.00000000      -0.00000125       0.00000000    4961.06491543       0.00000000       2.95000000       3.40636659       7.22599474       2.95000000       3.40636659       7.22599474 
Ti       1.47500000       2.55477494       9.63465965        1       0.00000000       0.00000000       0.00000000       0.00000073       0.00621220      -0.00000088        0        0        0        1       0.00000000       0.00000125      -0.00000000    4961.06491543       0.00000000       1.47500000       2.55477494       9.63465965       1.47500000       2.55477494       9.63465965 
Ti       2.95000000       3.40636659      12.04332457        1       0.00000000       0.00000000       0.00000000      -0.00000073      -0.00621219       0.00000089        0        0        0        1      -0.00000000      -0.00000125       0.00000000    4961.06491543       0.00000000       2.95000000       3.40636659      12.04332457       2.95000000       3.40636659      12.04332457 
Ti       2.95000000       5.10954988       0.00000000        1       0.00000000       0.00000000       0.00000000       0.00000073       0.00621221      -0.00000092        0        0        0        1       0.00000000       0.00000125      -0.00000000    4961.06491543       0.00000000       2.95000000       5.10954988       0.00000000       2.95000000       5.10954988       0.00000000 
Ti       4.42500000       5.96114153       2.40866491        1       0.00000000       0.00000000       0.00000000      -0.00000073      -0.00621218       0.00000094        0        0        0        1      -0.00000000      -0.00000125       0.00000000    4961.06491543       0.00000000       4.42500000       5.96114153       2.40866491       4.42500000       5.96114153       2.40866491 
Ti       2.95000000       5.10954988       4.81732983        1       0.00000000       0.00000000       0.00000000       0.00000073       0.00621221      -0.00000094        0        0        0        1       0.00000000       0.00000125      -0.00000000    4961.06491543       0.00000000       2.95000000       5.10954988       4.81732983       2.95000000       5.10954988       4.81732983 
Ti       4.42500000       5.96114153       7.22599474        1       0.00000000       0.00000000       0.00000000      -0.00000073      -0.00621218       0.00000091        0        0        0        1      -0.00000000      -0.00000125       0.00000000    4961.06491543       0.00000000       4.42500000       5.96114153       7.22599474       4.42500000       5.96114153       7.22599474 
Ti       2.95000000       5.10954988       9.63465965        1       0.00000000       0.00000000       0.00000000       0.00000073       0.00621221      -0.00000088        0        0        0        1       0.00000000       0.00000125      -0.00000000    4961.06491543       0.00000000       2.95000000       5.10954988       9.63465965       2.95000000       5.10954988       9.63465965 
Ti       4.42500000       5.96114153      12.04332457        1       0.00000000       0.00000000       0.00000000      -0.00000073      -0.00621218       0.00000089        0        0        0        1      -0.00000000      -0.00000125       0.00000000    4961.06491543       0.00000000       4.42500000       5.96114153      12.04332457       4.42500000       5.96114153      12.04332457 
Ti       1.47500000      -2.55477494       0.00000000        1       0.00000000       0.00000000       0.00000000       0.00000073       0.00621219      -0.00000092        0        0        0        1       0.00000000       0.00000125      -0.00000000    4961.06491543       0.00000000       1.47500000      -2.55477494       0.00000000       1.47500000      -2.55477494       0.00000000 
Ti       2.95000000      -1.70318329       2.40866491        1       0.00000000       0.00000000       0.00000000      -0.00000073      -0.00621221       0.00000094        0        0        0        1      -0.00000000      -0.00000125       0.00000000    4961.06491543       0.00000000       2.95000000      -1.70318329       2.40866491       2.95000000      -1.70318329       2.40866491 
Ti       1.47500000      -2.55477494       4.81732983        1       0.00000000       0.00000000       0.00000000       0.00000073       0.00621219      -0.00000094        0        0        0        1       0.00000000       0.00000125      -0.00000000    4961.06491543       0.00000000       1.47500000      -2.55477494       4.81732983       1.47500000      -2.55477494       4.81732983 
Ti       2.95000000      -1.70318329       7.22599474        1       0.00000000       0.00000000       0.00000000      -0.00000073      -0.00621221       0.00000091        0        0        0        1      -0.00000000      -0.00000125       0.00000000    4961.06491543       0.00000000       2.95000000      -1.70318329       7.22599474       2.95000000      -1.70318329       7.22599474 
Ti       1.47500000      -2.55477494       9.63465965        1       0.00000000       0.00000000       0.00000000       0.00000073       0.00621219      -0.00000088        0        0        0        1       0.00000000       0.00000125      -0.00000000    4961.06491543       0.00000000       1.47500000      -2.55477494       9.63465965       1.47500000      -2.55477494       9.63465965 
Ti       2.95000000      -1.70318329      12.04332457        1       0.00000000       0.00000000       0.00000000      -0.00000073      -0.00621221       0.00000089        0        0        0        1      -0.00000000      -0.00000125       0.00000000    4961.06491543       0.00000000       2.95000000      -1.70318329      12.04332457       2.95000000      -1.70318329      12.04332457 
Ti       2.95000000       0.00000000       0.00000000        1       0.00000000       0.00000000       0.00000000       0.00000073       0.00621220      -0.00000092        0        0        0        1       0.00000000       0.00000125      -0.00000000    4961.06491543       0.00000000       2.95000000       0.00000000       0.00000000       2.95000000       0.00000000       0.00000000 
Ti       4.42500000       0.85159165       2.40866491        1       0.00000000       0.00000000       0.00000000      -0.00000073      -0.00621219       0.00000094        0        0        0        1      -0.00000000      -0.00000125       0.00000000    4961.06491543       0.00000000       4.42500000       0.85159165       2.40866491       4.42500000       0.85159165       2.40866491 
Ti       2.95000000       0.00000000       4.81732983        1       0.00000000       0.00000000       0.00000000       0.00000073       0.00621220      -0.00000094        0        0        0        1       0.00000000       0.00000125      -0.00000000    4961.06491543       0.00000000       2.95000000       0.00000000       4.81732983       2.95000000       0.00000000       4.81732983 
Ti       4.42500000       0.85159165       7.22599474        1       0.00000000       0.00000000       0.00000000      -0.00000073      -0.00621219       0.00000091        0        0        0        1      -0.00000000      -0.00000125       0.00000000    4961.06491543       0.00000000       4.42500000       0.85159165       7.22599474       4.42500000       0.85159165       7.22599474 
Ti       2.95000000       0.00000000       9.63465965        1       0.00000000       0.00000000       0.00000000       0.00000073       0.00621220      -0.00000088        0        0        0        1       0.00000000       0.00000125      -0.00000000    4961.06491543       0.00000000       2.95000000       0.00000000       9.63465965       2.95000000       0.00000000       9.63465965 
Ti       4.42500000       0.85159165      12.04332457        1       0.00000000       0.00000000       0.00000000      -0.00000073      -0.00621219       0.00000089        0        0        0        1      -0.00000000      -0.00000125       0.00000000    4961.06491543       0.00000000       4.42500000       0.85159165      12.04332457       4.42500000       0.85159165      12.04332457 
Ti       4.42500000       2.55477494       0.00000000        1       0.00000000       0.00000000       0.00000000       0.00000073       0.00621220      -0.00000092        0        0        0        1       0.00000000       0.00000125      -0.00000000    4961.06491543       0.00000000       4.42500000       2.55477494       0.00000000       4.42500000       2.55477494       0.00000000 
Ti       5.90000000       3.40636659       2.40866491        1       0.00000000       0.00000000       0.00000000      -0.00000073      -0.00621219       0.00000094        0        0        0        1      -0.00000000      -0.00000125       0.00000000    4961.06491543       0.00000000       5.90000000       3.40636659       2.40866491       5.90000000       3.40636659       2.40866491 
Ti       4.42500000       2.55477494       4.81732983        1       0.00000000       0.00000000       0.00000000       0.00000073       0.00621220      -0.00000094        0        0        0        1       0.00000000       0.00000125      -0.00000000    4961.06491543       0.00000000       4.42500000       2.55477494       4.81732983       4.42500000       2.55477494       4.81732983 
Ti       5.90000000       3.40636659       7.22599474        1       0.00000000       0.00000000       0.00000000      -0.00000073      -0.00621219       0.00000091        0        0        0        1      -0.00000000      -0.00000125       0.00000000    4961.06491543       0.00000000       5.90000000       3.40636659       7.22599474       5.90000000       3.40636659       7.22599474 
Ti       4.42500000       2.55477494       9.63465965        1       0.00000000       0.00000000       0.00000000       0.00000073       0.00621220      -0.00000088        0        0        0        1       0.00000000       0.00000125      -0.00000000    4961.06491543       0.00000000       4.42500000       2.55477494       9.63465965       4.42500000       2.55477494       9.63465965 
Ti       5.90000000       3.40636659      12.04332457        1       0.00000000       0.00000000       0.00000000      -0.00000073      -0.00621219       0.00000089        0        0        0        1      -0.00000000      -0.00000125       0.00000000    4961.06491543       0.00000000       5.90000000       3.40636659      12.04332457       5.90000000       3.40636659      12.04332457 
Ti       2.95000000      -5.10954988       0.00000000        1       0.00000000       0.00000000       0.00000000       0.00000073       0.00621218      -0.00000092        0        0        0        1       0.00000000       0.00000125      -0.00000000    4961.06491543       0.00000000       2.95000000      -5.10954988       0.00000000       2.95000000      -5.10954988       0.00000000 
Ti       4.42500000      -4.25795824       2.40866491        1       0.00000000       0.00000000       0.00000000      -0.00000073      -0.00621213       0.00000094        0        0        0        1      -0.00000000      -0.00000125       0.00000000    4961.06491543       0.00000000       4.42500000      -4.25795824       2.40866491       4.42500000      -4.25795824       2.40866491 
Ti       2.95000000      -5.10954988       4.81732983        1       0.00000000       0.00000000       0.00000000       0.00000073       0.00621218      -0.00000094        0        0        0        1       0.00000000       0.00000125      -0.00000000    4961.06491543       0.00000000       2.95000000      -5.10954988       4.81732983       2.95000000      -5.10954988       4.81732983 
Ti       4.42500000      -4.25795824       7.22599474        1       0.00000000       0.00000000       0.00000000      -0.00000073      -0.00621214       0.00000091        0        0        0        1      -0.00000000      -0.00000125       0.00000000    4961.06491543       0.00000000       4.42500000      -4.25795824       7.22599474       4.42500000      -4.25795824       7.22599474 
Ti       2.95000000      -5.10954988       9.63465965        1       0.00000000       0.00000000       0.00000000       0.00000073       0.00621218      -0.00000088        0        0        0        1       0.00000000       0.00000125      -0.00000000    4961.06491543       0.00000000       2.95000000      -5.10954988       9.63465965       2.95000000      -5.10954988       9.63465965 
Ti       4.42500000      -4.25795824      12.04332457        1       0.00000000       0.00000000       0.00000000      -0.00000073      -0.00621213       0.00000089        0        0        0        1      -0.00000000      -0.00000125       0.00000000    4961.06491543       0.00000000       4.42500000      -4.25795824      12.04332457       4.42500000      -4.25795824      12.04332457 
Ti       4.42500000      -2.55477494       0.00000000        1       0.00000000       0.00000000       0.00000000       0.00000073       0.00621218      -0.00000092        0        0        0        1       0.00000000       0.00000125      -0.00000000    4961.06491543       0.00000000       4.42500000      -2.55477494       0.00000000       4.42500000      -2.55477494       0.00000000 
Ti       5.90000000      -1.70318329       2.40866491        1       0.00000000       0.00000000       0.00000000      -0.00000073      -0.00621221       0.00000094        0        0        0        1      -0.00000000      -0.00000125       0.00000000    4961.06491543       0.00000000       5.90000000      -1.70318329       2.40866491       5.90000000      -1.70318329       2.40866491 
Ti       4.42500000      -2.55477494       4.81732983        1       0.00000000       0.00000000       0.00000000       0.00000073       0.00621218      -0.00000094        0        0        0        1       0.00000000       0.00000125      -0.00000000    4961.06491543       0.00000000       4.42500000      -2.55477494       4.81732983       4.42500000      -2.55477494       4.81732983 
Ti       5.90000000      -1.70318329       7.22599474        1       0.00000000       0.00000000       0.00000000      -0.00000073      -0.00621221       0.00000091        0        0        0        1      -0.00000000      -0.00000125       0.00000000    4961.06491543       0.00000000       5.90000000      -1.70318329       7.22599474       5.90000000      -1.70318329       7.22599474 
Ti       4.42500000      -2.55477494       9.63465965        1       0.00000000       0.00000000       0.00000000       0.00000073       0.00621218      -0.00000088        0        0        0        1       0.00000000       0.00000125      -0.00000000    4961.06491543       0.00000000       4.42500000      -2.55477494       9.63465965       4.42500000      -2.55477494       9.63465965 
Ti       5.90000000      -1.70318329      12.04332457        1       0.00000000       0.00000000       0.00000000      -0.00000073      -0.00621221       0.00000089        0        0        0        1      -0.00000000      -0.00000125       0.00000000    4961.06491543       0.00000000       5.90000000      -1.70318329      12.04332457       5.90000000      -1.70318329      12.04332457 
Ti       5.90000000       0.00000000       0.00000000        1       0.00000000       0.00000000       0.00000000       0.00000074       0.00621220      -0.00000092        0        0        0        1       0.00000000       0.00000125      -0.00000000    4961.06491543       0.00000000       5.90000000       0.00000000       0.00000000       5.90000000       0.00000000       0.00000000 
Ti       7.37500000       0.85159165       2.40866491        1       0.00000000       0.00000000       0.00000000      -0.00000073      -0.00621220       0.00000094        0        0        0        1      -0.00000000      -0.00000125       0.00000000    4961.06491543       0.00000000       7.37500000       0.85159165       2.40866491       7.37500000       0.85159165       2.40866491 
Ti       5.90000000       0.00000000       4.81732983        1       0.00000000       0.00000000       0.00000000       0.00000074       0.00621220      -0.00000094        0        0        0        1       0.00000000       0.00000125      -0.00000000    4961.06491543       0.00000000       5.90000000       0.00000000       4.81732983       5.90000000       0.00000000       4.81732983 
Ti       7.37500000       0.85159165       7.22599474        1       0.00000000       0.00000000       0.00000000      -0.00000073      -0.00621220       0.00000091        0        0        0        1      -0.00000000      -0.00000125       0.00000000    4961.06491543       0.00000000       7.37500000       0.85159165       7.22599474       7.37500000       0.85159165       7.22599474 
Ti       5.90000000       0.00000000       9.63465965        1       0.00000000       0.00000000       0.00000000       0.00000074       0.00621220      -0.00000088        0        0        0        1       0.00000000       0.00000125      -0.00000000    4961.06491543       0.00000000       5.90000000       0.00000000       9.63465965       5.90000000       0.00000000       9.63465965 
Ti       7.37500000       0.85159165      12.04332457        1       0.00000000       0.00000000       0.00000000      -0.00000073      -0.00621220       0.00000089        0        0        0        1      -0.00000000      -0.00000125       0.00000000    4961.06491543       0.00000000       7.37500000       0.85159165      12.04332457       7.37500000       0.85159165      12.04332457 
54
Lattice="4.425 -7.66432482349 0.0 4.425 7.66432482349 0.0 0.0 0.0 14.4519894824" Properties=species:S:1:pos:R:3:damp_mask:I:1:velo:R:3:force:R:3:travel:I:3:thermostat_region:I:1:acc:R:3:mass:R:1:avg_ke:R:1:avgpos:R:3:oldpos:R:3 cutoff=0.0 orig_lattice_inv="0.11299435028248586 0.11299435028248586 -0.0 -0.0652373185525195 0.0652373185525195 -0.0 0.0 -0.0 0.06919462550244901" nneightol=1.2 energy=-319.4365952778479 i_step=125 config_type=hcp_1000K pbc="T T T" time=500.0 virial="-7.192898757096202 -0.15852510560395736 1.406392510422481 -0.15852510560396008 -13.054155215436083 -1.94955164071634 1.4063925104224668 -1.9495516407163487 -10.320090646107161"
Ti      -0.46994253      -0.01942512      -0.17869881        1      -0.00218210       0.00202465      -0.00048335       0.87447209       0.52261011       1.27888226        0        0        0        1       0.00017627       0.00010534       0.00025778    4961.06491543       0.15312134      -0.18498961       0.05158637      -0.04562548       0.00000000       0.00000000       0.00000000 
Ti       1.28597544       0.54322717       2.06204977        1      -0.00618366      -0.00160434       0.00417218       0.71950338      -0.39479870      -0.08297217        0        0        0        1       0.00014503      -0.00007958      -0.00001672    4961.06491543       0.17699764       1.57739188       0.54107290       2.20680153       1.47500000       0.85159165       2.40866491 
Ti       0.34232621      -0.18078238       4.72784896        1      -0.00494524      -0.00244016      -0.00465901      -0.67240701      -0.46248143       0.20421805        0        0        0        1      -0.00013554      -0.00009322       0.00004116    4961.06491543       0.11545315       0.24670470      -0.14418930       4.84045446       0.00000000       0.00000000       4.81732983 
Ti       1.69095729       0.81394660       6.99716486        1      -0.00078440      -0.00195070      -0.00603408      -0.16244752      -0.20090971       0.40249595        0        0        0        1      -0.00003274      -0.00004050       0.00008113    4961.06491543       0.09058206       1.65987662       0.86779825       7.15044551       1.47500000       0.85159165       7.22599474 
Ti      -0.38184511       0.39266548       9.68808190        1      -0.00434112      -0.00525010      -0.00058438       0.52057148      -0.56868633      -0.55928694        0        0        0        1       0.00010493      -0.00011463      -0.00011274    4961.06491543       0.21326385      -0.09627475       0.19824304       9.60903660       0.00000000       0.00000000       9.63465965 
Ti       1.06118749       1.14737709      11.99215138        1       0.00558023       0.00304662       0.00345807       0.21594156      -0.45753344      -0.14962932        0        0        0        1       0.00004353      -0.00009222      -0.00003016    4961.06491543       0.10083894       1.19275553       1.06864499      11.98344258       1.47500000       0.85159165      12.04332457 
Ti       0.98513405       2.68088772      -0.12839142        1      -0.00102330       0.00273854       0.00106275       1.39989394      -0.25269958      -0.36428134        0        0        0        1       0.00028218      -0.00005094      -0.00007343    4961.06491543       0.13401748       1.22354305       2.63575560      -0.12621569       1.47500000       2.55477494       0.00000000 
Ti       2.56516288       3.03356307       2.26752199        1       0.00298091      -0.00500511       0.00074434       1.08845482       0.74736543      -0.14484928        0        0        0        1       0.00021940       0.00015065      -0.00002920    4961.06491543       0.07966335       2.73497430       3.29265452       2.27324311       2.95000000       3.40636659       2.40866491 
Ti       1.51011225       2.38880862       4.51034043        1       0.00284409      -0.00154680       0.00755601       0.06372787      -0.59669786       0.64896501        0        0        0        1       0.00001285      -0.00012028       0.00013081    4961.06491543       0.07909260       1.47383274       2.37525166       4.47899001       1.47500000       2.55477494       4.81732983 
Ti       3.31439796       3.14658303       7.17817713        1      -0.00292819       0.00051677       0.00147659      -0.44636430       0.64137236      -0.56750667        0        0        0        1      -0.00008997       0.00012928      -0.00011439    4961.06491543       0.09358197       3.22592076       3.29395694       7.02992212       2.95000000       3.40636659       7.22599474 
Ti       1.46894540       2.67025014       9.56260732        1      -0.00217353       0.00128498      -0.00299415      -0.08765156      -0.05467752      -0.34427083        0        0        0        1      -0.00001767      -0.00001102      -0.00006939    4961.06491543       0.08891619       1.49015443       2.58389538       9.51678442       1.47500000       2.55477494       9.63465965 
Ti       2.79211849       3.44969492      11.84288882        1       0.00038010       0.00009686      -0.00278106      -0.27846478      -0.06919516       0.82547468        0        0        0        1      -0.00005613      -0.00001395       0.00016639    4961.06491543       0.06343806       2.76743509       3.43891470      11.93856812       2.95000000       3.40636659      12.04332457 
Ti       3.07494291       5.04749896      -0.05707971        1      -0.00216556       0.00061389      -0.00414081      -1.29977145      -0.12566057      -0.31938799        0        0        0        1      -0.00026199      -0.00002533      -0.00006438    4961.06491543       0.06744499       2.92097584       5.12693299      -0.14043725       2.95000000       5.10954988       0.00000000 
Ti       4.33204670       5.52762574       2.22788423        1       0.00196887       0.01023924       0.00185372       0.11670896       0.27210965       0.64152328        0        0        0        1       0.00002352       0.00005485       0.00012931    4961.06491543       0.14157807       4.30527155       5.70838551       2.32346044       4.42500000       5.96114153       2.40866491 
Ti       2.96236887       4.97645478       4.81006185        1       0.00334908      -0.00062675       0.00406051       1.01999515      -0.75753402       0.15237459        0        0        0        1       0.00020560      -0.00015270       0.00003071    4961.06491543       0.11443255       2.95440282       5.02267298       4.64842015       2.95000000       5.10954988       4.81732983 
Ti       4.64054959       5.86497458       7.34287001        1       0.00012423      -0.00422226      -0.00176454      -0.23569324       0.18798239      -0.38253807        0        0        0        1      -0.00004751       0.00003789      -0.00007711    4961.06491543       0.08871235       4.54019492       5.92771288       7.25498783       4.42500000       5.96114153       7.22599474 
Ti       2.67113569       5.17722874       9.75724508        1       0.00204994       0.00060660       0.00020059       0.80620591       0.58423335      -0.07844725        0        0        0        1       0.00016251       0.00011776      -0.00001581    4961.06491543       0.08175340       2.86566146       5.12706006       9.64347268       2.95000000       5.10954988       9.63465965 
Ti       4.29439163       6.17658054      11.92125598        1       0.00057663       0.00118364       0.00253112      -0.07881660      -0.24620495      -0.65592621        0        0        0        1      -0.00001589      -0.00004963      -0.00013221    4961.06491543       0.08944522       4.40228191       6.09372143      11.92631460       4.42500000       5.96114153      12.04332457 
Ti       1.35379259      -2.18533598      -0.36761704        1       0.00144699      -0.00069033       0.00027507       0.40779310      -0.66387672       1.07812462        0        0        0        1       0.00008220      -0.00013382       0.00021732    4961.06491543       0.16866362       1.37023275      -2.36626527      -0.13308509       1.47500000      -2.55477494       0.00000000 