52
Lattice="4.425 -7.66432482349 0.0 4.425 7.66432482349 0.0 0.0 0.0 14.4519894824" Properties=species:S:1:pos:R:3:mass:R:1:travel:I:3:damp_mask:I:1:thermostat_region:I:1:avg_ke:R:1:velo:R:3:acc:R:3:avgpos:R:3:oldpos:R:3:force:R:3:forces:R:3 energy=-327.7235920869364 virial="-5.063394586407327 -0.000858367674484084 -0.000502100737706859 -0.000858368137215503 -5.236429347145304 9.9485606426573e-05 0.000843293877105415 0.001444883166797185 -13.20841463005641" time=0.0 orig_lattice_inv="0.11299435028248586 0.11299435028248586 -0.0 -0.0652373185525195 0.0652373185525195 -0.0 0.0 -0.0 0.06919462550244901" cutoff=0.0 nneightol=1.2 config_type=hcp_1000K n_minim_iter=0 pbc="T T T"
Ti       0.02997389       0.01730543       4.71350786    4961.06491543        0        0        0        1        1       0.00000000       0.00000000       0.00000000       0.00000000       0.00000000       0.00000125      -0.00000000       0.00000000       0.00000000       4.81732983       0.00000000       0.00000000       4.81732983       0.00000073       0.00621219      -0.00000094       0.00138187       0.00079782       0.00163557
Ti       1.47014256       0.84878721       7.19216499    4961.06491543        0        0        0        1        1       0.00000000       0.00000000       0.00000000       0.00000000      -0.00000000      -0.00000125       0.00000000       1.47500000       0.85159165       7.22599474       1.47500000       0.85159165       7.22599474      -0.00000073      -0.00621221       0.00000091      -0.00304124      -0.00175586       0.00584903
Ti       0.00485744       0.00280444       9.66848940    4961.06491543        0        0        0        1        1       0.00000000       0.00000000       0.00000000       0.00000000       0.00000000       0.00000125      -0.00000000       0.00000000       0.00000000       9.63465965       0.00000000       0.00000000       9.63465965       0.00000073       0.00621219      -0.00000088       0.00304124       0.00175586      -0.00584903
Ti       1.44502611       0.83428621      12.14714654    4961.06491543        0        0        0        1        1       0.00000000       0.00000000       0.00000000       0.00000000      -0.00000000      -0.00000125       0.00000000       1.47500000       0.85159165      12.04332457       1.47500000       0.85159165      12.04332457      -0.00000073      -0.00621221       0.00000089      -0.00138187      -0.00079782      -0.00163557
Ti       1.51567034       2.52265863       0.05616528    4961.06491543        0        0        0        1        1       0.00000000       0.00000000       0.00000000       0.00000000       0.00000000       0.00000125      -0.00000000       1.47500000       2.55477494       0.00000000       1.47500000       2.55477494       0.00000000       0.00000073       0.00621220      -0.00000092      -0.00027588       0.00595805      -0.00424604
Ti       2.95983384       3.38577988       2.38318595    4961.06491543        0        0        0        1        1       0.00000000       0.00000000       0.00000000       0.00000000      -0.00000000      -0.00000125       0.00000000       2.95000000       3.40636659       2.40866491       2.95000000       3.40636659       2.40866491      -0.00000073      -0.00621219       0.00000094      -0.00151800       0.00770049      -0.00109566
Ti       1.47599612       2.54144465       4.80815810    4961.06491543        0        0        0        1        1       0.00000000       0.00000000       0.00000000       0.00000000       0.00000000       0.00000125      -0.00000000       1.47500000       2.55477494       4.81732983       1.47500000       2.55477494       4.81732983       0.00000073       0.00621220      -0.00000094       0.00272970      -0.00044292       0.00571201
Ti       2.94194924       3.40805283       7.21935112    4961.06491543        0        0        0        1        1       0.00000000       0.00000000       0.00000000       0.00000000      -0.00000000      -0.00000125       0.00000000       2.95000000       3.40636659       7.22599474       2.95000000       3.40636659       7.22599474      -0.00000073      -0.00621219       0.00000091      -0.00058955      -0.00054875       0.00218675
Ti       1.48025283       2.53335458       9.66414829    4961.06491543        0        0        0        1        1       0.00000000       0.00000000       0.00000000       0.00000000       0.00000000       0.00000125      -0.00000000       1.47500000       2.55477494       9.63465965       1.47500000       2.55477494       9.63465965       0.00000073       0.00621220      -0.00000088       0.00400209      -0.00350426       0.00652003
Ti       2.95475855       3.38461775      12.09878231    4961.06491543        0        0        0        1        1       0.00000000       0.00000000       0.00000000       0.00000000      -0.00000000      -0.00000125       0.00000000       2.95000000       3.40636659      12.04332457       2.95000000       3.40636659      12.04332457      -0.00000073      -0.00621219       0.00000089      -0.00140023       0.00164959       0.00010138
Ti       2.94016616       5.13013659       0.02547896    4961.06491543        0        0        0        1        1       0.00000000       0.00000000       0.00000000       0.00000000       0.00000000       0.00000125      -0.00000000       2.95000000       5.10954988       0.00000000       2.95000000       5.10954988       0.00000000       0.00000073       0.00621221      -0.00000092       0.00151800      -0.00770049       0.00109566
Ti       4.38432966       5.99325784       2.35249963    4961.06491543        0        0        0        1        1       0.00000000       0.00000000       0.00000000       0.00000000      -0.00000000      -0.00000125       0.00000000       4.42500000       5.96114153       2.40866491       4.42500000       5.96114153       2.40866491      -0.00000073      -0.00621218       0.00000094       0.00027588      -0.00595805       0.00424604
Ti       2.94524145       5.13129872       4.76187209    4961.06491543        0        0        0        1        1       0.00000000       0.00000000       0.00000000       0.00000000       0.00000000       0.00000125      -0.00000000       2.95000000       5.10954988       4.81732983       2.95000000       5.10954988       4.81732983       0.00000073       0.00621221      -0.00000094       0.00140023      -0.00164959      -0.00010138
Ti       4.41974717       5.98256189       7.19650610    4961.06491543        0        0        0        1        1       0.00000000       0.00000000       0.00000000       0.00000000      -0.00000000      -0.00000125       0.00000000       4.42500000       5.96114153       7.22599474       4.42500000       5.96114153       7.22599474      -0.00000073      -0.00621218       0.00000091      -0.00400209       0.00350426      -0.00652003
Ti       2.95805076       5.10786364       9.64130328    4961.06491543        0        0        0        1        1       0.00000000       0.00000000       0.00000000       0.00000000       0.00000000       0.00000125      -0.00000000       2.95000000       5.10954988       9.63465965       2.95000000       5.10954988       9.63465965       0.00000073       0.00621221      -0.00000088       0.00058955       0.00054875      -0.00218675
Ti       4.42400388       5.97447182      12.05249630    4961.06491543        0        0        0        1        1       0.00000000       0.00000000       0.00000000       0.00000000      -0.00000000      -0.00000125       0.00000000       4.42500000       5.96114153      12.04332457       4.42500000       5.96114153      12.04332457      -0.00000073      -0.00621218       0.00000089      -0.00272970       0.00044292      -0.00571201
Ti       1.46970971      -2.49893236      -0.03020560    4961.06491543        0        0        0        1        1       0.00000000       0.00000000       0.00000000       0.00000000       0.00000000       0.00000125      -0.00000000       1.47500000      -2.55477494       0.00000000       1.47500000      -2.55477494       0.00000000       0.00000073       0.00621219      -0.00000092      -0.00130581       0.00231744      -0.00540516
Ti       2.90428405      -1.67068047       2.43887052    4961.06491543        0        0        0        1        1       0.00000000       0.00000000       0.00000000       0.00000000      -0.00000000      -0.00000125       0.00000000       2.95000000      -1.70318329       2.40866491       2.95000000      -1.70318329       2.40866491      -0.00000073      -0.00621221       0.00000094      -0.00135406       0.00228958       0.00540516
Ti       1.45462892      -2.53480608       4.80277643    4961.06491543        0        0        0        1        1       0.00000000       0.00000000       0.00000000       0.00000000       0.00000000       0.00000125      -0.00000000       1.47500000      -2.55477494       4.81732983       1.47500000      -2.55477494       4.81732983       0.00000073       0.00621219      -0.00000094      -0.00377134       0.00037972       0.00548618
Ti       2.94852804      -1.69388881       7.23175373    4961.06491543        0        0        0        1        1       0.00000000       0.00000000       0.00000000       0.00000000      -0.00000000      -0.00000125       0.00000000       2.95000000      -1.70318329       7.22599474       2.95000000      -1.70318329       7.22599474      -0.00000073      -0.00621221       0.00000091       0.00483339       0.00340514       0.00737728
Ti       1.46768672      -2.54885295       9.62890067    4961.06491543        0        0        0        1        1       0.00000000       0.00000000       0.00000000       0.00000000       0.00000000       0.00000125      -0.00000000       1.47500000      -2.55477494       9.63465965       1.47500000      -2.55477494       9.63465965       0.00000073       0.00621219      -0.00000088      -0.00536563      -0.00248327      -0.00737727
Ti       2.94289200      -1.67555699      12.05787797    4961.06491543        0        0        0        1        1       0.00000000       0.00000000       0.00000000       0.00000000      -0.00000000      -0.00000125       0.00000000       2.95000000      -1.70318329      12.04332457       2.95000000      -1.70318329      12.04332457      -0.00000073      -0.00621221       0.00000089       0.00155683       0.00345594      -0.00548618
Ti       2.94252163       0.05127970       0.05616528    4961.06491543        0        0        0        1        1       0.00000000       0.00000000       0.00000000       0.00000000       0.00000000       0.00000125      -0.00000000       2.95000000       0.00000000       0.00000000       2.95000000       0.00000000       0.00000000       0.00000073       0.00621220      -0.00000092       0.00502188      -0.00321794      -0.00424604
Ti       4.41208831       0.87040135       2.38318595    4961.06491543        0        0        0        1        1       0.00000000       0.00000000       0.00000000       0.00000000      -0.00000000      -0.00000125       0.00000000       4.42500000       0.85159165       2.40866491       4.42500000       0.85159165       2.40866491      -0.00000073      -0.00621219       0.00000094       0.00590982      -0.00516487      -0.00109566
Ti       2.93895369       0.00752782       4.80815810    4961.06491543        0        0        0        1        1       0.00000000       0.00000000       0.00000000       0.00000000       0.00000000       0.00000125      -0.00000000       2.95000000       0.00000000       4.81732983       2.95000000       0.00000000       4.81732983       0.00000073       0.00621220      -0.00000094       0.00098127       0.00258544       0.00571201
Ti       4.42243495       0.84377637       7.21935112    4961.06491543        0        0        0        1        1       0.00000000       0.00000000       0.00000000       0.00000000      -0.00000000      -0.00000125       0.00000000       4.42500000       0.85159165       7.22599474       4.42500000       0.85159165       7.22599474      -0.00000073      -0.00621219       0.00000091      -0.00077001      -0.00023619       0.00218675
Ti       2.93407584       0.01525927       9.66414829    4961.06491543        0        0        0        1        1       0.00000000       0.00000000       0.00000000       0.00000000       0.00000000       0.00000125      -0.00000000       2.95000000       0.00000000       9.63465965       2.95000000       0.00000000       9.63465965       0.00000073       0.00621220      -0.00000088      -0.00103373       0.00521804       0.00652003
Ti       4.40854423       0.86658709      12.09878231    4961.06491543        0        0        0        1        1       0.00000000       0.00000000       0.00000000       0.00000000      -0.00000000      -0.00000125       0.00000000       4.42500000       0.85159165      12.04332457       4.42500000       0.85159165      12.04332457      -0.00000073      -0.00621219       0.00000089       0.00072847      -0.00203743       0.00010138
Ti       4.44687497       2.56740446       0.00493854    4961.06491543        0        0        0        1        1       0.00000000       0.00000000       0.00000000       0.00000000       0.00000000       0.00000125      -0.00000000       4.42500000       2.55477494       0.00000000       4.42500000       2.55477494       0.00000000       0.00000073       0.00621220      -0.00000092      -0.00267478      -0.00154428       0.00684872
Ti       5.90540206       3.40948547       2.36875401    4961.06491543        0        0        0        1        1       0.00000000       0.00000000       0.00000000       0.00000000      -0.00000000      -0.00000125       0.00000000       5.90000000       3.40636659       2.40866491       5.90000000       3.40636659       2.40866491      -0.00000073      -0.00621219       0.00000094       0.00485226       0.00280145      -0.00199197
Ti       4.40310499       2.54213385       4.81923275    4961.06491543        0        0        0        1        1       0.00000000       0.00000000       0.00000000       0.00000000       0.00000000       0.00000125      -0.00000000       4.42500000       2.55477494       4.81732983       4.42500000       2.55477494       4.81732983       0.00000073       0.00621220      -0.00000094      -0.00631256      -0.00364456       0.00078269
Ti       5.90312550       3.40817110       7.23176034    4961.06491543        0        0        0        1        1       0.00000000       0.00000000       0.00000000       0.00000000      -0.00000000      -0.00000125       0.00000000       5.90000000       3.40636659       7.22599474       5.90000000       3.40636659       7.22599474      -0.00000073      -0.00621219       0.00000091      -0.00222851      -0.00128663       0.00513314
Ti       4.42614314       2.55543493       9.63423898    4961.06491543        0        0        0        1        1       0.00000000       0.00000000       0.00000000       0.00000000       0.00000000       0.00000125      -0.00000000       4.42500000       2.55477494       9.63465965       4.42500000       2.55477494       9.63465965       0.00000073       0.00621220      -0.00000088       0.00041185       0.00023778       0.00155048
Ti       5.91015881       3.41223178      12.03638695    4961.06491543        0        0        0        1        1       0.00000000       0.00000000       0.00000000       0.00000000      -0.00000000      -0.00000125       0.00000000       5.90000000       3.40636659      12.04332457       5.90000000       3.40636659      12.04332457      -0.00000073      -0.00621219       0.00000089       0.00488459       0.00282012      -0.00194301
Ti       2.99571595      -5.14205270      -0.03020560    4961.06491543        0        0        0        1        1       0.00000000       0.00000000       0.00000000       0.00000000       0.00000000       0.00000125      -0.00000000       2.95000000      -5.10954988       0.00000000       2.95000000      -5.10954988       0.00000000       0.00000073       0.00621218      -0.00000092       0.00135406      -0.00228958      -0.00540516
Ti       4.43029029      -4.31380082       2.43887052    4961.06491543        0        0        0        1        1       0.00000000       0.00000000       0.00000000       0.00000000      -0.00000000      -0.00000125       0.00000000       4.42500000      -4.25795824       2.40866491       4.42500000      -4.25795824       2.40866491      -0.00000073      -0.00621213       0.00000094       0.00130580      -0.00231744       0.00540516
Ti       2.95710800      -5.13717618       4.80277643    4961.06491543        0        0        0        1        1       0.00000000       0.00000000       0.00000000       0.00000000       0.00000000       0.00000125      -0.00000000       2.95000000      -5.10954988       4.81732983       2.95000000      -5.10954988       4.81732983       0.00000073       0.00621218      -0.00000094      -0.00155683      -0.00345594       0.00548618
Ti       4.43231328      -4.26388023       7.23175373    4961.06491543        0        0        0        1        1       0.00000000       0.00000000       0.00000000       0.00000000      -0.00000000      -0.00000125       0.00000000       4.42500000      -4.25795824       7.22599474       4.42500000      -4.25795824       7.22599474      -0.00000073      -0.00621214       0.00000091       0.00536563       0.00248327       0.00737728
Ti       2.95147196      -5.11884437       9.62890067    4961.06491543        0        0        0        1        1       0.00000000       0.00000000       0.00000000       0.00000000       0.00000000       0.00000125      -0.00000000       2.95000000      -5.10954988       9.63465965       2.95000000      -5.10954988       9.63465965       0.00000073       0.00621218      -0.00000088      -0.00483339      -0.00340514      -0.00737728
Ti       4.44537108      -4.27792710      12.05787797    4961.06491543        0        0        0        1        1       0.00000000       0.00000000       0.00000000       0.00000000      -0.00000000      -0.00000125       0.00000000       4.42500000      -4.25795824      12.04332457       4.42500000      -4.25795824      12.04332457      -0.00000073      -0.00621213       0.00000089       0.00377134      -0.00037972      -0.00548618
Ti       4.41959794      -2.55789382       0.03991091    4961.06491543        0        0        0        1        1       0.00000000       0.00000000       0.00000000       0.00000000       0.00000000       0.00000125      -0.00000000       4.42500000      -2.55477494       0.00000000       4.42500000      -2.55477494       0.00000000       0.00000073       0.00621218      -0.00000092      -0.00485226      -0.00280145       0.00199197
Ti       5.87812503      -1.71581281       2.40372637    4961.06491543        0        0        0        1        1       0.00000000       0.00000000       0.00000000       0.00000000      -0.00000000      -0.00000125       0.00000000       5.90000000      -1.70318329       2.40866491       5.90000000      -1.70318329       2.40866491      -0.00000073      -0.00621221       0.00000094       0.00267477       0.00154428      -0.00684872
Ti       4.41484119      -2.56064013       4.82426744    4961.06491543        0        0        0        1        1       0.00000000       0.00000000       0.00000000       0.00000000       0.00000000       0.00000125      -0.00000000       4.42500000      -2.55477494       4.81732983       4.42500000      -2.55477494       4.81732983       0.00000073       0.00621218      -0.00000094      -0.00488459      -0.00282012       0.00194301
Ti       5.89885686      -1.70384328       7.22641542    4961.06491543        0        0        0        1        1       0.00000000       0.00000000       0.00000000       0.00000000      -0.00000000      -0.00000125       0.00000000       5.90000000      -1.70318329       7.22599474       5.90000000      -1.70318329       7.22599474      -0.00000073      -0.00621221       0.00000091      -0.00041185      -0.00023778      -0.00155048
Ti       4.42187450      -2.55657945       9.62889405    4961.06491543        0        0        0        1        1       0.00000000       0.00000000       0.00000000       0.00000000       0.00000000       0.00000125      -0.00000000       4.42500000      -2.55477494       9.63465965       4.42500000      -2.55477494       9.63465965       0.00000073       0.00621218      -0.00000088       0.00222851       0.00128663      -0.00513314
Ti       5.92189501      -1.69054220      12.04142165    4961.06491543        0        0        0        1        1       0.00000000       0.00000000       0.00000000       0.00000000      -0.00000000      -0.00000125       0.00000000       5.90000000      -1.70318329      12.04332457       5.90000000      -1.70318329      12.04332457      -0.00000073      -0.00621221       0.00000089       0.00631256       0.00364456      -0.00078269
Ti       5.91291169      -0.01880970       0.02547896    4961.06491543        0        0        0        1        1       0.00000000       0.00000000       0.00000000       0.00000000       0.00000000       0.00000125      -0.00000000       5.90000000       0.00000000       0.00000000       5.90000000       0.00000000       0.00000000       0.00000074       0.00621220      -0.00000092      -0.00590982       0.00516488       0.00109566
Ti       7.38247837       0.80031195       2.35249963    4961.06491543        0        0        0        1        1       0.00000000       0.00000000       0.00000000       0.00000000      -0.00000000      -0.00000125       0.00000000       7.37500000       0.85159165       2.40866491       7.37500000       0.85159165       2.40866491      -0.00000073      -0.00621220       0.00000094      -0.00502188       0.00321794       0.00424604
Ti       5.91645577      -0.01499544       4.76187209    4961.06491543        0        0        0        1        1       0.00000000       0.00000000       0.00000000       0.00000000       0.00000000       0.00000125      -0.00000000       5.90000000       0.00000000       4.81732983       5.90000000       0.00000000       4.81732983       0.00000074       0.00621220      -0.00000094      -0.00072847       0.00203743      -0.00010138
Ti       7.39092416       0.83633238       7.19650610    4961.06491543        0        0        0        1        1       0.00000000       0.00000000       0.00000000       0.00000000      -0.00000000      -0.00000125       0.00000000       7.37500000       0.85159165       7.22599474       7.37500000       0.85159165       7.22599474      -0.00000073      -0.00621220       0.00000091       0.00103373      -0.00521804      -0.00652003
Ti       5.90256505       0.00781528       9.64130328    4961.06491543        0        0        0        1        1       0.00000000       0.00000000       0.00000000       0.00000000       0.00000000       0.00000125      -0.00000000       5.90000000       0.00000000       9.63465965       5.90000000       0.00000000       9.63465965       0.00000074       0.00621220      -0.00000088       0.00077001       0.00023619      -0.00218675
Ti       7.38604631       0.84406383      12.05249630    4961.06491543        0        0        0        1        1       0.00000000       0.00000000       0.00000000       0.00000000      -0.00000000      -0.00000125       0.00000000       7.37500000       0.85159165      12.04332457       7.37500000       0.85159165      12.04332457      -0.00000073      -0.00621220       0.00000089      -0.00098127      -0.00258544      -0.00571201
