53
Lattice="4.425 -7.66432482349 0.0 4.425 7.66432482349 0.0 0.0 0.0 14.4519894824" Properties=species:S:1:pos:R:3:momenta:R:3:masses:R:1:force:R:3:forces:R:3 energy=-309.648825859 config_type=HMD_iter1 pbc="T T T"
Ti       1.71482204       1.11920334       2.28727258       1.65878858       4.02280191       2.01853996      47.86700000      -0.37688560      -0.59104762      -0.12574599      -0.37688560      -0.59104762      -0.12574599 
Ti      -0.01894298       0.01325546       4.94010558      -2.39414494       1.38371185       1.55464222      47.86700000       0.79892987      -0.61712625      -0.29136184       0.79892987      -0.61712625      -0.29136184 
Ti       1.40628517       0.97922096       7.23367747       1.03086967      -0.02875223       0.02276520      47.86700000      -0.53604160       0.13292530       0.39162705      -0.53604160       0.13292530       0.39162705 
Ti       0.05293695      -0.34369834       9.55122562       0.99546697      -4.11829724      -2.85060163      47.86700000       0.82169910       1.17827934       1.29477346       0.82169910       1.17827934       1.29477346 
Ti       1.94264742       0.95514703      11.77434774       0.74871913       2.54482007      -3.71585165      47.86700000      -1.09661484      -0.09077235       0.19424932      -1.09661484      -0.09077235       0.19424932 
Ti       1.65705963       2.95315304      -0.19169395      -1.71902521      -3.24883916      -0.74217013      47.86700000       0.35344296      -0.82754299       0.29170675       0.35344296      -0.82754299       0.29170675 
Ti       3.14727288       3.58398845       2.39505184       1.90915457      -2.86945306      -1.05039359      47.86700000      -0.67469154      -0.04460610      -0.81602554      -0.67469154      -0.04460610      -0.81602554 
Ti       1.39136849       2.50897670       5.00619287      -1.44751597       0.98471285      -1.01902657      47.86700000      -0.07453977       0.28836830      -0.55044643      -0.07453977       0.28836830      -0.55044643 
Ti       2.85021113       3.61302036       7.01716223      -0.39601883       2.26576635       0.86090277      47.86700000      -1.01190363       0.34370905      -0.18700100      -1.01190363       0.34370905      -0.18700100 
Ti       1.13453836       2.66889322       9.38792907      -1.35011613       2.14948066      -1.78952818      47.86700000      -0.02704055      -0.84580569       0.56503356      -0.02704055      -0.84580569       0.56503356 
Ti       3.10300498       3.58854521      11.56842788       3.38850145       1.89949411      -0.80241213      47.86700000       0.03592147      -0.84655001       1.02229374       0.03592147      -0.84655001       1.02229374 
Ti       2.93999221       5.25731981      -0.19459228      -1.23384741      -1.82948688      -0.86919155      47.86700000       0.52164590      -0.14197786       0.13703641       0.52164590      -0.14197786       0.13703641 
Ti       4.46722082       5.92587096       2.45721456      -2.72452353       2.50214736       2.37785358      47.86700000       0.57955416       0.41989007       0.01015351       0.57955416       0.41989007       0.01015351 
Ti       2.81954762       5.28881878       4.65966553      -0.36749639      -0.36429927       1.88446418      47.86700000      -0.08797816      -0.38685584       0.38616203      -0.08797816      -0.38685584       0.38616203 
Ti       4.11760039       6.16532356       7.26100591       0.56271891       1.00637905       1.40555141      47.86700000       0.77116285      -0.53304566      -0.53478145       0.77116285      -0.53304566      -0.53478145 
Ti       2.78173960       5.14653025       9.32826492      -3.86964893      -0.67791111      -2.95652052      47.86700000       0.41295236      -0.25983897       0.52513771       0.41295236      -0.25983897       0.52513771 
Ti       4.68454176       5.47617689      12.10609949       0.52140476       1.25677414       0.53025816      47.86700000      -0.07263456       1.73723618      -0.02699207      -0.07263456       1.73723618      -0.02699207 
Ti       1.59345376      -2.89782032       0.07005836       1.93363314       2.57194999      -0.05766747      47.86700000      -0.16923929       0.63769256       0.85706228      -0.16923929       0.63769256       0.85706228 
Ti       2.72616242      -1.79152541       2.48412763      -0.39205884       0.76350856      -0.21593618      47.86700000       0.99734933       0.03745984       0.50921215       0.99734933       0.03745984       0.50921215 
Ti       1.47603592      -3.00544806       5.05256631       1.67767124      -1.84902646       0.97441631      47.86700000      -0.51608525       1.48558100      -1.04270399      -0.51608525       1.48558100      -1.04270399 
Ti       2.59883273      -1.54611640       7.22228581      -3.17376156       0.45129832       0.24281442      47.86700000       0.33321266      -0.16634645       0.25356300       0.33321266      -0.16634645       0.25356300 
Ti       1.36818481      -2.87866445       9.76505181      -1.15953526      -1.81219149      -3.57476112      47.86700000       0.06688972       0.42704830      -0.04341307       0.06688972       0.42704830      -0.04341307 
Ti       3.06836076      -1.68719071      11.74755397       0.46568745      -2.11501090      -3.30654937      47.86700000      -0.53133387       0.14208228       0.51715225      -0.53133387       0.14208228       0.51715225 
Ti       3.20999481      -0.41923502      -0.06969363       2.89467724      -1.97784186       2.48084927      47.86700000       0.12920835       0.12117274      -0.23914896       0.12920835       0.12117274      -0.23914896 
Ti       4.39284016       0.91651910       2.37680214       2.86308503       1.22819970       1.27717648      47.86700000      -0.71845561      -0.52655395      -0.20013042      -0.71845561      -0.52655395      -0.20013042 
Ti       2.87339332       0.14433424       5.04204648       1.26671178      -0.28689723      -0.80318443      47.86700000      -0.01522757      -0.99739254      -1.13905954      -0.01522757      -0.99739254      -1.13905954 
Ti       4.44615026       1.21806597       7.04499740       0.95860467       0.46429322       2.15999637      47.86700000       0.17502345      -0.73921840       0.19331864       0.17502345      -0.73921840       0.19331864 
Ti       3.10937267      -0.04194487       9.31327792      -1.12654339       0.10874602      -0.52309491      47.86700000      -0.59571779      -0.12543075       0.66511130      -0.59571779      -0.12543075       0.66511130 
Ti       4.68036949       0.85341708      11.63093421       1.64302046      -2.05053263      -0.61803678      47.86700000      -0.26437350       0.16631797       1.30934836      -0.26437350       0.16631797       1.30934836 
Ti       4.35509288       2.51942344      -0.14660253      -1.57726837       1.26314373      -0.86812565      47.86700000      -0.11457116      -0.40099962      -0.06364241      -0.11457116      -0.40099962      -0.06364241 
Ti       6.13330718       2.90184441       2.61245241       0.12223484       2.24032362       4.78661069      47.86700000      -0.27874104       1.31416283      -0.02368592      -0.27874104       1.31416283      -0.02368592 
Ti       4.18015902       2.61600554       4.72767081      -1.50560685      -0.65940177       2.38226345      47.86700000       0.46542245       0.01912856      -0.06390518       0.46542245       0.01912856      -0.06390518 
Ti       5.59613424       3.73673112       7.53190666      -3.78694991      -0.51470359      -1.58485476      47.86700000       0.58321079      -0.45202531      -0.52807080       0.58321079      -0.45202531      -0.52807080 
Ti       3.92795474       2.67781769       9.20021220       0.40397092       1.97619393       0.47789290      47.86700000       0.39379083      -0.85522677       0.97060012       0.39379083      -0.85522677       0.97060012 
Ti       6.20852413       3.13528179      12.37434320      -1.93746024       0.64572955       1.21652158      47.86700000       0.48825706       0.09998486       0.09191178       0.48825706       0.09998486       0.09191178 
Ti       3.54684223      -4.97311649       0.51730356       5.22304384      -1.39185709      -0.64960423      47.86700000      -1.07772424      -0.83985906      -1.29537279      -1.07772424      -0.83985906      -1.29537279 
Ti       4.44726216      -4.36200143       2.89805492      -1.64388084      -5.13950464      -0.02671761      47.86700000       0.32950661       1.45036555      -0.34030063       0.32950661       1.45036555      -0.34030063 
Ti       2.88024236      -5.33648442       5.31422511      -0.11695416       1.99338865      -1.69512691      47.86700000      -0.32325303       0.42723127      -0.53495387      -0.32325303       0.42723127      -0.53495387 
Ti       4.09068315      -4.09489198       7.47440522      -0.99922572      -1.86211456       1.75861693      47.86700000       0.20230821      -0.42356111      -0.09352187       0.20230821      -0.42356111      -0.09352187 
Ti       2.25140506      -5.50319327       9.88536994       0.75911943      -0.65813306      -1.42071389      47.86700000       1.35441732      -0.00296655      -0.71034244       1.35441732      -0.00296655      -0.71034244 
Ti       4.61169639      -4.28600689      11.82248924       1.22399071      -0.11900776       1.31605018      47.86700000      -0.35942820      -0.61233532       0.64713661      -0.35942820      -0.61233532       0.64713661 
Ti       4.34538022      -2.47283527      -0.15676729       1.99986523       2.27444278       2.17277027      47.86700000       0.06679225       1.18174824       0.18663162       0.06679225       1.18174824       0.18663162 
Ti       5.98847924      -1.35975878       2.18529101       3.35117833      -0.14994494       2.30481314      47.86700000      -0.67833207      -0.93291541      -0.12965845      -0.67833207      -0.93291541      -0.12965845 
Ti       4.32399918      -2.57569711       5.26070597      -2.81937614      -2.01540807       3.20593141      47.86700000       0.01278844       0.24954434      -1.49252402       0.01278844       0.24954434      -1.49252402 
Ti       5.64893486      -1.46837834       7.31603242      -0.44850911       2.93233271      -3.27640645      47.86700000      -0.55042784      -0.56208641      -1.27817560      -0.55042784      -0.56208641      -1.27817560 
Ti       4.35225452      -2.79214120       9.64898339       0.70662942      -0.87686396      -1.48123260      47.86700000      -0.74910209       0.43141462      -0.38496496      -0.74910209       0.43141462      -0.38496496 
Ti       5.98807379      -1.70616622      11.79551562       0.57053748      -3.10021639      -2.78106741      47.86700000       0.17083343       0.09435925       0.77451125       0.17083343       0.09435925       0.77451125 
Ti       6.14962686       0.12054735       0.26592148      -1.95928789      -0.89172235       0.26530819      47.86700000       0.15074530       0.41060130      -0.73546244       0.15074530       0.41060130      -0.73546244 
Ti       7.70932679       0.98482126       2.67789763      -4.90856283      -1.52948504       2.87121263      47.86700000       0.00760536      -0.72798922       0.02900030       0.00760536      -0.72798922       0.02900030 
Ti       5.86889023       0.14459371       4.77203329       3.09071192       2.52851299       0.54444167      47.86700000      -0.28843676      -0.51814003       0.35088043      -0.28843676      -0.51814003       0.35088043 
Ti       7.27973017       0.74980708       7.45175228       0.84725733      -1.86208367       0.57310217      47.86700000       0.65231312       1.11292071      -0.55357990       0.65231312       1.11292071      -0.55357990 
Ti       5.91159271      -0.01755471       9.40589845       1.99524437      -0.07473818      -0.00288485      47.86700000      -0.21703584      -0.00492352       0.83109380      -0.21703584      -0.00492352       0.83109380 
Ti       7.59441029       0.59019039      12.06730283      -1.75518042       2.61557247      -2.98410496      47.86700000       0.53083200       0.16391529       0.42026413       0.53083200       0.16391529       0.42026413 
