53
Lattice="4.425 -7.66432482349 0.0 4.425 7.66432482349 0.0 0.0 0.0 14.4519894824" Properties=species:S:1:pos:R:3:momenta:R:3:masses:R:1:force:R:3:forces:R:3 energy=-310.522240295 config_type=HMD_iter10 pbc="T T T"
Ti       1.53353353       0.77178340       2.55601079      -2.44043527      -0.37092932       3.53768184      47.86700000       0.29501422       0.15902451      -0.68210010       0.29501422       0.15902451      -0.68210010 
Ti      -0.04571724      -0.10726253       5.33690326      -1.59065261      -0.76335902       0.04647110      47.86700000       0.05820658       0.11146607      -1.37664473       0.05820658       0.11146607      -1.37664473 
Ti       1.36360918       1.02999497       7.23474397      -2.61808877       2.19396146       2.25025794      47.86700000       1.14564016      -0.66311409       0.18296713       1.14564016      -0.66311409       0.18296713 
Ti       0.15502133       0.40986107       9.63295872       1.71304350      -1.31381204       1.21348197      47.86700000       0.71400543      -0.93972985       0.83191926       0.71400543      -0.93972985       0.83191926 
Ti       1.71450610       0.91885043      12.09691655       0.04790791       0.18771209       4.86179573      47.86700000       0.14567539      -0.03767701      -0.53053436       0.14567539      -0.03767701      -0.53053436 
Ti       0.66567790       1.94606526      -0.12543173      -4.07204122       1.20579362      -1.70844301      47.86700000       1.75334754       1.77049225      -0.18265181       1.75334754       1.77049225      -0.18265181 
Ti       2.62939070       3.33823390       2.30818154       1.68755780       3.15263046      -1.82012236      47.86700000       1.11664990       0.14403792      -0.92683297       1.11664990       0.14403792      -0.92683297 
Ti       1.52085508       2.38499133       4.51271481       1.08573923      -1.24449789      -2.71741367      47.86700000      -0.50986528       0.49352595       1.27268453      -0.50986528       0.49352595       1.27268453 
Ti       3.12945965       3.29622352       7.04622531       0.91825289       2.20104582      -1.65467147      47.86700000      -0.75268956       0.17757743       0.38563226      -0.75268956       0.17757743       0.38563226 
Ti       2.01370329       2.46404423       9.64079559      -2.67846878       1.21250377      -1.31612126      47.86700000      -0.66841348       0.87633432      -0.01910919      -0.66841348       0.87633432      -0.01910919 
Ti       2.87691636       3.67852090      12.08640365       3.35707195       0.30563572      -2.84678872      47.86700000      -0.16049979      -0.96327417      -0.05676085      -0.16049979      -0.96327417      -0.05676085 
Ti       3.43690823       4.99535033       0.02052052      -0.36945575       0.74957676       0.01054200      47.86700000       0.05087716      -0.32473246       0.13732538       0.05087716      -0.32473246       0.13732538 
Ti       4.42922259       6.31240306       2.84387109       2.83095632       2.05738004       3.25463907      47.86700000       0.47421980      -1.20186968      -0.32203456       0.47421980      -1.20186968      -0.32203456 
Ti       3.18059751       4.94195598       4.86682211       2.09712240      -3.43487778       2.20665733      47.86700000      -0.25866413       0.17316874       0.07604923      -0.25866413       0.17316874       0.07604923 
Ti       4.58977192       6.07590825       7.42239983      -0.01836818      -1.24892102       2.58903778      47.86700000      -0.47819867       0.16253213       0.08853499      -0.47819867       0.16253213       0.08853499 
Ti       3.32009361       5.04387565       9.57758927      -3.30496795       0.72585867      -0.38234852      47.86700000       0.39801329      -0.55348111       0.07475633       0.39801329      -0.55348111       0.07475633 
Ti       4.76933170       6.15770621      12.05584807       3.02149525      -2.29130764       1.31695627      47.86700000      -1.28913712       0.53898310       0.15979669      -1.28913712       0.53898310       0.15979669 
Ti       1.92698800      -1.67694814       0.48851779       0.42448947      -0.34863303       0.97209576      47.86700000      -0.64393808       0.29022124      -0.62743342      -0.64393808       0.29022124      -0.62743342 
Ti       3.17270694      -1.66487699       2.78788179      -0.70948115       0.67791114       2.75068554      47.86700000      -0.16539465       0.26425044      -0.15600139      -0.16539465       0.26425044      -0.15600139 
Ti       1.58000463      -2.69867377       5.20353686      -0.44443330       4.41499218       0.69923240      47.86700000       0.17658198       1.51959741      -2.93654907       0.17658198       1.51959741      -2.93654907 
Ti       3.22723108      -1.67728917       7.30990200       1.06798031      -3.20756394      -1.77713840      47.86700000      -0.36501702      -0.27609275      -0.28237934      -0.36501702      -0.27609275      -0.28237934 
Ti       1.83294668      -2.20990663       9.57666786       0.51635556      -0.63251845       0.78871598      47.86700000       0.05063337      -1.40699626       0.87970248       0.05063337      -1.40699626       0.87970248 
Ti       3.13620674      -1.53840736      12.20291944       3.30394330       0.64105718      -1.32168897      47.86700000      -0.39355088       0.00885685       0.02861112      -0.39355088       0.00885685       0.02861112 
Ti      -0.50207088       0.04951552       0.30715676       1.79494049      -1.50271698       1.90583988      47.86700000       0.00392051      -1.01556794      -0.58527924       0.00392051      -1.01556794      -0.58527924 
Ti       4.58164941       1.15612547       2.21536264      -2.83560063       3.55523871       1.79245141      47.86700000      -0.80122853      -0.60027778      -0.16973216      -0.80122853      -0.60027778      -0.16973216 
Ti       2.92493320       0.03056994       4.94775453      -3.89317201       1.18893094      -0.59143753      47.86700000      -0.26078102      -0.57350571       0.12878773      -0.26078102      -0.57350571       0.12878773 
Ti       4.63379952       0.74944517       7.11606005      -3.97486013      -0.22917927       1.37500447      47.86700000      -0.51723276       0.67425567       0.44363024      -0.51723276       0.67425567       0.44363024 
Ti       3.30419558      -0.01338686       9.49486130      -1.62567094      -0.10283114       2.68652773      47.86700000      -0.17684608       0.01829183       0.10132366      -0.17684608       0.01829183       0.10132366 
Ti       4.64041913       0.71424780      11.77875915      -2.85128273       1.50012457       0.29337293      47.86700000      -0.01927959       0.79608646       0.06254087      -0.01927959       0.79608646       0.06254087 
Ti       3.88292964       2.23888329      -0.40834288      -2.08794960      -3.06278077       1.43474536      47.86700000       0.15743742      -0.47276321       0.82794157       0.15743742      -0.47276321       0.82794157 
Ti       5.64875931       3.78732872       2.41435149      -1.19894386       0.24548425      -2.00379153      47.86700000       0.03051737      -0.27032626      -0.05025784       0.03051737      -0.27032626      -0.05025784 
Ti       4.32751114       2.31962790       4.68639699      -0.42689186      -0.88059633       1.59047690      47.86700000       1.07139128       0.61749834      -0.21456208       1.07139128       0.61749834      -0.21456208 
Ti       5.99971369       3.61764488       6.99606381       3.56767244       2.22269132      -4.00937173      47.86700000      -0.49381229      -1.85947236       2.29000659      -0.49381229      -1.85947236       2.29000659 
Ti       4.75909183       2.49090860       9.43130528       1.36093022       0.10143020      -1.04326099      47.86700000      -0.00811508       0.13797496       0.18064863      -0.00811508       0.13797496       0.18064863 
Ti       5.77385598       3.64650908      12.01041860      -1.61742283       2.61875424      -3.09258641      47.86700000       0.07125086       0.01232068       0.13078862       0.07125086       0.01232068       0.13078862 
Ti       2.59654282      -5.15969928       0.17429071       0.96447414       1.22079388      -1.74014803      47.86700000      -1.48242629      -0.35235611      -0.32250282      -1.48242629      -0.35235611      -0.32250282 
Ti       4.40069142      -4.22554555       2.16894652      -2.31084026      -3.18545687       0.23199917      47.86700000      -0.82590965      -0.52567225       0.88819961      -0.82590965      -0.52567225       0.88819961 
Ti       3.06815059      -5.18765757       4.82735186       3.25539280       2.03905509      -1.15425864      47.86700000      -0.52937003       0.09542069      -0.65763531      -0.52937003       0.09542069      -0.65763531 
Ti       4.43526833      -4.37436339       7.16187709       3.61821317      -1.21117909      -0.82565623      47.86700000       0.47876763       0.98845683      -0.19430154       0.47876763       0.98845683      -0.19430154 
Ti       2.96719330      -5.17892837       9.36328541      -0.67563439      -1.64354622      -1.35252229      47.86700000       0.05121091       0.94995161       0.87597530       0.05121091       0.94995161       0.87597530 
Ti       4.04678271      -4.12375313      11.72865111       1.57422388      -0.66763804       0.91385719      47.86700000       1.23405738      -0.56491468       0.20052055       1.23405738      -0.56491468       0.20052055 
Ti       4.28260776      -2.96656060      -0.15396254       0.11957981       0.10148316      -3.89331741      47.86700000       1.12255792       0.20233610       0.02662204       1.12255792       0.20233610       0.02662204 
Ti       5.99695421      -1.79516730       2.14734661       0.74510772      -2.12678001      -2.09248743      47.86700000      -0.06678012      -0.11085503       0.52248277      -0.06678012      -0.11085503       0.52248277 
Ti       4.77944511      -2.68685674       4.65922247       1.99583235       0.82287133      -2.17510240      47.86700000      -0.86275059      -0.61096724       0.26560661      -0.86275059      -0.61096724       0.26560661 
Ti       5.82773047      -1.81751493       7.07103954      -1.51844614      -3.25921973      -0.00846903      47.86700000       1.66274043       0.04711686       0.55143986       1.66274043       0.04711686       0.55143986 
Ti       4.92412175      -2.55684191       9.62627489      -0.42812777       0.80896936       1.57004718      47.86700000      -0.71889500      -0.40966675      -0.41723142      -0.71889500      -0.40966675      -0.41723142 
Ti       5.90738939      -1.76343393      12.13464899       0.49703688      -1.53817316       0.50706700      47.86700000       0.54295952       0.11193087       0.36555744       0.54295952       0.11193087       0.36555744 
Ti       5.71691884      -0.36413180       0.04297066       1.23182961      -0.35471850       3.17375414      47.86700000      -0.94695534       0.61432497      -0.52376811      -0.94695534       0.61432497      -0.52376811 
Ti       7.22745215       0.71419629       2.64476186       3.97230095      -4.10044221       2.31098785      47.86700000       0.44954130       1.44367113       0.08474071       0.44954130       1.44367113       0.08474071 
Ti       5.74834278      -0.12325113       4.76622641      -0.06781760      -1.76973332       0.50009250      47.86700000       0.71288407      -0.18770341      -0.01995497       0.71288407      -0.18770341      -0.01995497 
Ti       7.29523304       0.98927576       7.31960764      -0.27800468      -1.50214104      -1.78977601      47.86700000      -0.21916605      -0.58301898      -0.54439484      -0.21916605      -0.58301898      -0.54439484 
Ti       6.44692105      -0.36440915       9.73221262      -0.48674698       1.20414052      -2.03347644      47.86700000      -1.02001541       1.09911043      -0.56600993      -1.02001541       1.09911043      -0.56600993 
Ti       7.32350119       0.99779386      12.08196463      -2.24564494       4.63752632      -3.43407593      47.86700000       0.66683106       0.00521930       0.29986983       0.66683106       0.00521930       0.29986983 
