53
Lattice="4.425 -7.66432482349 0.0 4.425 7.66432482349 0.0 0.0 0.0 14.4519894824" Properties=species:S:1:pos:R:3:momenta:R:3:masses:R:1:force:R:3:forces:R:3 energy=-308.190383305 config_type=HMD_iter6 pbc="T T T"
Ti       2.09233352       1.44381773       2.21380219      -0.16527860      -0.27116734      -3.68928012      47.86700000       0.17572339      -0.40355427      -0.12162544       0.17572339      -0.40355427      -0.12162544 
Ti      -0.88755242       0.11624506       5.16362084      -0.79944648      -0.18343783       0.94048123      47.86700000      -0.45183531      -0.38421862      -0.42978468      -0.45183531      -0.38421862      -0.42978468 
Ti       0.03131376       1.21796776       7.58656316      -0.97682870       1.68550743      -0.95740477      47.86700000       0.89456239      -0.01510081      -0.54608602       0.89456239      -0.01510081      -0.54608602 
Ti       0.41957544      -0.87459473       9.62125558      -1.03809900       4.61110257      -1.31510742      47.86700000      -0.31591139       0.32647233       0.70967916      -0.31591139       0.32647233       0.70967916 
Ti       1.77960856      -0.10947378      12.13071286      -0.23447913       1.55655443       2.81339312      47.86700000       0.44492910       0.26401842      -0.17382790       0.44492910       0.26401842      -0.17382790 
Ti       1.97595501       3.05010066      -0.49615186       4.63546798       5.37820844      -3.70946122      47.86700000      -0.39819014       0.43969871       1.56192827      -0.39819014       0.43969871       1.56192827 
Ti       3.47180119       3.71980998       2.52626308      -1.31944557      -0.99737073       1.34479708      47.86700000       0.85120219       1.10454327      -0.29481532       0.85120219       1.10454327      -0.29481532 
Ti       0.33455654       2.58046835       4.71424704       0.24771261      -1.74625020       0.39055557      47.86700000       0.62532746      -0.35189067       0.85339180       0.62532746      -0.35189067       0.85339180 
Ti       1.86894482       3.57339217       7.10041232      -2.14536564      -1.85400304      -0.61619562      47.86700000      -0.35176901      -0.00705796       0.42145332      -0.35176901      -0.00705796       0.42145332 
Ti       1.49333410       1.78478955       9.71546831      -3.04578081       0.17319754       1.11513072      47.86700000       1.01378949      -0.41861751      -0.50274374       1.01378949      -0.41861751      -0.50274374 
Ti       3.39089174       2.42473148      11.91817783       1.82585353      -0.48215662       0.07147438      47.86700000      -1.43971206       0.76473418       1.24939250      -1.43971206       0.76473418       1.24939250 
Ti       3.82099357       5.21135003      -0.13078153      -1.15517930      -1.48278656       0.41175319      47.86700000      -1.33718908       0.85875439       0.33034602      -1.33718908       0.85875439       0.33034602 
Ti       4.95170895       6.40081687       2.09119682       3.13655454      -0.34169318      -2.57505214      47.86700000       0.50862787       0.51810893       0.66527297       0.50862787       0.51810893       0.66527297 
Ti       1.96298746       5.06477779       5.06520841      -1.86577109      -1.52557200       1.77465505      47.86700000       0.63092423       0.66621968       0.03790421       0.63092423       0.66621968       0.03790421 
Ti       3.33861709       6.00135553       7.53858333       1.76960275      -0.46550606       3.93278063      47.86700000      -0.61347307       0.47562674      -0.95353213      -0.61347307       0.47562674      -0.95353213 
Ti       3.29414545       4.35948466       9.51736889       3.77588250       0.83781143      -1.70263288      47.86700000      -0.13221364      -0.23108171       0.66047226      -0.13221364      -0.23108171       0.66047226 
Ti       5.09634223       4.92365646      11.94254679      -0.82322775       0.36843313       3.79191715      47.86700000      -0.41337971       0.44189173      -0.09057516      -0.41337971       0.44189173      -0.09057516 
Ti       2.26991905      -2.34377504      -0.04624534       0.27066457       2.87421748       1.83579090      47.86700000      -0.75183612       0.61307801      -0.20126466      -0.75183612       0.61307801      -0.20126466 
Ti       3.70812826      -1.26095735       2.42772409      -2.60809930       0.10366104       0.16640705      47.86700000      -0.90046976       1.02381025      -0.16394458      -0.90046976       1.02381025      -0.16394458 
Ti       0.69416078      -2.31692878       4.77653956      -1.35942406      -1.07215074       0.79018657      47.86700000      -0.42962584      -0.56813713      -0.32224119      -0.42962584      -0.56813713      -0.32224119 
Ti       1.64898016      -0.95452444       6.99542106      -1.29441715      -3.20814466       3.21402944      47.86700000       0.54137545      -1.12795797       0.44453983       0.54137545      -1.12795797       0.44453983 
Ti       1.96627250      -3.10458591       9.86677857      -0.13233381       1.34074066       0.78070838      47.86700000       0.27966803      -0.28966669      -0.99171472       0.27966803      -0.28966669      -0.99171472 
Ti       3.66112990      -2.23524540      11.90074837       1.45096072      -2.27423309      -1.17634843      47.86700000      -0.21321444      -0.28035275       0.38205229      -0.21321444      -0.28035275       0.38205229 
Ti       3.46764973       0.42723434       0.04012658       2.05286622       1.41942507       0.00581313      47.86700000      -0.03847971      -0.47202618       0.19618059      -0.03847971      -0.47202618       0.19618059 
Ti       5.08443229       1.50813297       2.53446865       0.36579071      -0.55689373       0.79438662      47.86700000       0.19597498      -0.66595708       0.21550896       0.19597498      -0.66595708       0.21550896 
Ti       1.96415679      -0.02361950       4.71931422       1.80307890      -0.76333581      -1.44095000      47.86700000       0.35642477       0.62683600      -0.61398654       0.35642477       0.62683600      -0.61398654 
Ti       3.38943647       1.23064450       7.20164627      -0.70660550       0.49342398      -1.29722906      47.86700000       0.03934634       0.43219926      -0.15855272       0.03934634       0.43219926      -0.15855272 
Ti       3.55845667      -0.52782840       9.48676632       0.08634696       4.21164615       0.78304308      47.86700000      -1.46411105      -0.11407095       0.57717150      -1.46411105      -0.11407095       0.57717150 
Ti       4.96171156       0.28822202      12.06796839      -0.59419467       0.80429690       0.73070641      47.86700000      -0.09706935      -0.90858889       0.76880430      -0.09706935      -0.90858889       0.76880430 
Ti       4.75184896       2.58364537      -0.24206737      -0.42523913       2.20221424      -0.65464439      47.86700000       0.56543646       0.78738565       1.34468524       0.56543646       0.78738565       1.34468524 
Ti       6.67054475       3.88146963       2.14825123       2.51469418      -0.44409373      -0.93460042      47.86700000      -0.33161121      -0.22870733       0.78608900      -0.33161121      -0.22870733       0.78608900 
Ti       3.42765352       2.75418306       4.71957056      -2.74727783      -2.75079912       1.63867361      47.86700000       0.33155784      -0.42482155       0.02172864       0.33155784      -0.42482155       0.02172864 
Ti       5.16835441       3.63622737       7.26134815       0.24364034      -1.20035004       0.24871847      47.86700000      -1.20045706       1.22116316       0.19764575      -1.20045706       1.22116316       0.19764575 
Ti       4.29656399       2.29852882       9.85910596      -0.09794584      -1.81731975       0.72057618      47.86700000       1.68129660      -0.11207288      -2.40193078       1.68129660      -0.11207288      -2.40193078 
Ti       6.29929948       2.51183765      12.03312791       0.15476277       1.19097065       2.73250240      47.86700000       0.78032698       0.11002204      -0.70883173       0.78032698       0.11002204      -0.70883173 
Ti       3.40802353      -4.53443402      -0.31108500       1.16011962      -0.11846554       1.63063349      47.86700000       0.67502265      -0.30463803       0.98217807       0.67502265      -0.30463803       0.98217807 
Ti       5.23861346      -3.65410265       2.35062823      -1.28967087       3.23726428      -2.20062650      47.86700000      -0.64212663      -0.39005561      -0.57210517      -0.64212663      -0.39005561      -0.57210517 
Ti       1.90151946      -4.80948320       5.06535194      -1.79624337      -1.68100262      -2.48826757      47.86700000       0.20929744      -1.29094409      -0.93941933       0.20929744      -1.29094409      -0.93941933 
Ti       3.26214335      -3.85010297       7.19351424      -0.65750824      -0.51920823       0.38359304      47.86700000       0.38314529       0.50368873       0.39800897       0.38314529       0.50368873       0.39800897 
Ti       3.63673951      -5.74046701       9.70882445       1.01618403       2.39788028      -4.42879912      47.86700000      -1.08190905       0.47236836       0.01169608      -1.08190905       0.47236836       0.01169608 
Ti       4.84819579      -4.90111495      11.72821429      -4.30112639      -3.54619908      -2.93351773      47.86700000       0.16077991       0.14057857       0.39691740       0.16077991       0.14057857       0.39691740 
Ti       5.04383090      -1.82745462       0.01278418       0.62296444      -2.10613746      -3.30788337      47.86700000       0.76563693      -0.62663991      -0.08090594       0.76563693      -0.62663991      -0.08090594 
Ti       6.43244770      -1.25526624       2.85947686      -2.23274359       0.08410226      -2.37349567      47.86700000       1.20911937       0.81207785      -0.87839544       1.20911937       0.81207785      -0.87839544 
Ti       3.72998657      -2.64131954       4.73314875       0.80540885       0.83775630       0.27496659      47.86700000      -1.10178852       0.57902267      -0.35736201      -1.10178852       0.57902267      -0.35736201 
Ti       4.66290259      -1.21601986       7.10249226      -1.84083503      -3.43155858      -0.56311600      47.86700000       0.36520103      -0.68279815       0.32442480       0.36520103      -0.68279815       0.32442480 
Ti       4.85277552      -3.07349261       9.58939739       1.78442288       0.48825713       1.56041888      47.86700000       0.58129952       0.62828892      -0.64697645       0.58129952       0.62828892      -0.64697645 
Ti       6.49709404      -2.11468957      12.09961633      -1.77327502      -0.68736653       5.67776443      47.86700000      -0.05070847      -0.93531868      -0.94248464      -0.05070847      -0.93531868      -0.94248464 
Ti       6.55891389       0.48949032       0.45384771       2.00732541       1.61992767      -1.75273605      47.86700000       0.46370921      -0.44883225      -0.85693317       0.46370921      -0.44883225      -0.85693317 
Ti       8.32327548       1.55999399       2.44978137       0.36946567      -2.41411292      -2.32023118      47.86700000      -1.06198360      -0.75938790      -0.37275003      -1.06198360      -0.75938790      -0.37275003 
Ti       5.02944548       0.09049847       4.82198957      -0.72188833       1.48745601       3.62044818      47.86700000      -0.38725997       0.26527856       0.85081622      -0.38725997       0.26527856       0.85081622 
Ti       6.29859155       1.18930782       7.62532889       2.51865183       0.16216572      -0.12596041      47.86700000      -0.78241317      -0.28929240      -0.49122897      -0.78241317      -0.28929240      -0.49122897 
Ti       6.17656612      -0.01053837       9.69568855       0.12142123      -2.60265650       0.54674034      47.86700000       0.75670660      -1.51728713      -0.17980766       0.75670660      -1.51728713      -0.17980766 
Ti       7.79967876       0.05081301      12.02167603       3.40788694       0.97775089      -2.15950525      47.86700000       0.50232581       0.17320867       0.60553800       0.50232581       0.17320867       0.60553800 
