53
Lattice="4.425 -7.66432482349 0.0 4.425 7.66432482349 0.0 0.0 0.0 14.4519894824" Properties=species:S:1:pos:R:3:momenta:R:3:masses:R:1:force:R:3:forces:R:3 energy=-311.38199699 config_type=HMD_iter5 pbc="T T T"
Ti       1.10283275       0.54943117       2.37470122      -2.78240773       2.55176532       0.00829959      47.86700000       1.41739721       0.35873876       0.05667423       1.41739721       0.35873876       0.05667423 
Ti       0.18998101       0.00085170       4.89884732       1.27655460       0.27143380       0.52559933      47.86700000      -1.19071724      -0.86654687      -0.14564843      -1.19071724      -0.86654687      -0.14564843 
Ti       1.35229416       0.70616426       7.16304174      -0.96612975      -0.21068415       5.19064530      47.86700000       1.34490329       0.62808463       0.60996559       1.34490329       0.62808463       0.60996559 
Ti       0.09730167       0.19474053       9.55462332      -2.54921870       1.03091471      -0.13562205      47.86700000      -0.05095852      -0.90246651       0.03875070      -0.05095852      -0.90246651       0.03875070 
Ti       1.18255421       0.66163862      12.28772551       1.14335713      -0.41608108      -0.67317820      47.86700000       0.77928106       0.27462287      -0.73599427       0.77928106       0.27462287      -0.73599427 
Ti       1.34564122       2.14098523       0.15787860       1.56909923      -0.25252891      -1.29549999      47.86700000       0.18478339       0.59948604      -0.17108875       0.18478339       0.59948604      -0.17108875 
Ti       2.80254900       3.51779003       2.23776526       0.48535407       1.65523925       0.28178012      47.86700000      -0.02670377       0.38725292       0.01682016      -0.02670377       0.38725292       0.01682016 
Ti       1.27815095       2.51446794       4.81371859       1.21331764       1.77893886      -0.62335063      47.86700000       0.58970464       0.27258888       0.03843934       0.58970464       0.27258888       0.03843934 
Ti       2.97437629       3.43576998       6.95010651       0.50880706       0.82226327       2.03209700      47.86700000       0.15101243      -0.92262831       1.30097140       0.15101243      -0.92262831       1.30097140 
Ti       1.55599712       2.55742635      10.01889276       3.80369177      -2.30859026      -1.49006858      47.86700000       0.42689430       0.07155731      -0.35136427       0.42689430       0.07155731      -0.35136427 
Ti       2.73049116       3.92960248      12.49280573      -0.60312861       2.13486815       0.21320029      47.86700000      -0.25415059      -1.34201828      -0.41303196      -0.25415059      -1.34201828      -0.41303196 
Ti       3.47675257       6.10720065      -0.33980675       1.84178264       0.48293738       0.63062503      47.86700000      -0.32040510       0.87386749      -0.22566022      -0.32040510       0.87386749      -0.22566022 
Ti       4.20032032       6.13489894       2.33837782      -1.04579460       2.29377484       0.11979073      47.86700000       0.53146095      -0.55255689       0.53514527       0.53146095      -0.55255689       0.53514527 
Ti       3.05764572       5.21133661       4.87231184      -2.32470754       3.11701475      -2.29722020      47.86700000      -0.71026570      -0.15047079      -0.77109005      -0.71026570      -0.15047079      -0.77109005 
Ti       4.46876119       5.70961010       7.37284517       5.12138918       0.95403245      -1.67865447      47.86700000       0.61671392       0.74130393      -0.34282112       0.61671392       0.74130393      -0.34282112 
Ti       3.02424989       5.06585729       9.71444353       1.15910314      -2.74358114      -0.64693456      47.86700000      -0.46812848       0.03532491      -0.17661465      -0.46812848       0.03532491      -0.17661465 
Ti       4.50509382       5.85961615      12.05016727      -0.36392629      -3.98245951      -3.11842327      47.86700000      -0.42425142       0.14937662       0.57980294      -0.42425142       0.14937662       0.57980294 
Ti       1.47371361      -2.89117929       0.30499341      -0.09534604      -0.90129509      -0.13793070      47.86700000       0.83582285       1.88343825      -2.81735782       0.83582285       1.88343825      -2.81735782 
Ti       3.17180510      -1.62193123       2.46379496       1.10644821      -1.76200795      -1.94114978      47.86700000      -0.52030401      -0.04552463      -0.09938328      -0.52030401      -0.04552463      -0.09938328 
Ti       1.40475977      -2.57754202       4.87630715      -1.18531853      -1.55801595       1.96743970      47.86700000       0.38572376      -0.13770846      -0.22588564       0.38572376      -0.13770846      -0.22588564 
Ti       3.10686867      -1.61157541       7.00755668       0.64733629      -0.64431186      -0.75709315      47.86700000      -0.76232680      -1.06533131       0.70485579      -0.76232680      -1.06533131       0.70485579 
Ti       1.48170927      -2.50714620       9.74479859      -1.31101670       0.89700752       1.62264256      47.86700000       0.39573270      -0.99575574      -0.63337810       0.39573270      -0.99575574      -0.63337810 
Ti       2.82249935      -1.82294371      12.04483480      -2.92231682       2.22120713      -3.81297410      47.86700000       0.65112976       0.18575431       0.49889080       0.65112976       0.18575431       0.49889080 
Ti       2.59817069      -0.13132254       0.01310217      -2.22861464       1.09569571       4.48571302      47.86700000       0.66463133      -0.80251396       0.20010081       0.66463133      -0.80251396       0.20010081 
Ti       4.29541852       1.04705980       2.30035326       1.11711999       0.43412883      -3.65179181      47.86700000      -0.23149933      -0.01508690       0.10048967      -0.23149933      -0.01508690       0.10048967 
Ti       2.94421082       0.17777156       4.93523045      -1.02390974      -0.67991594       2.97846501      47.86700000      -0.16013100      -0.27474029      -1.12648349      -0.16013100      -0.27474029      -1.12648349 
Ti       4.54827381       0.67787725       7.21548230       1.20091903      -1.46933166       1.06539070      47.86700000      -0.32917287       0.85313101       0.20609908      -0.32917287       0.85313101       0.20609908 
Ti       3.02127264      -0.34623501       9.58759126       2.40692506       0.02242914      -2.43463084      47.86700000      -0.16612231       1.62620963       0.20435820      -0.16612231       1.62620963       0.20435820 
Ti       4.23413022       0.82748346      12.05522024       0.14358600       1.33438944      -2.43351413      47.86700000      -0.24894664       0.48782460      -0.33473800      -0.24894664       0.48782460      -0.33473800 
Ti       4.18353265       2.56982027      -0.11525253       0.26040460      -0.43661572       3.45245250      47.86700000       0.56577905      -0.25087490       0.32402778       0.56577905      -0.25087490       0.32402778 
Ti       5.89733534       3.60843945       2.22049920       2.20684693       0.64654948      -2.63030105      47.86700000      -0.42518213      -2.28694687       2.74263912      -0.42518213      -2.28694687       2.74263912 
Ti       4.11861145       2.53879238       4.81305288      -0.96441304       0.85386179       2.26457565      47.86700000       1.71416092       0.53100992      -0.59424821       1.71416092       0.53100992      -0.59424821 
Ti       6.09137908       3.23979219       7.21632345       1.11203521      -0.78213644       0.51074002      47.86700000      -0.13095917       0.75969410       0.26077703      -0.13095917       0.75969410       0.26077703 
Ti       4.28998998       2.39558415       9.66892041      -0.57161201      -1.73978940      -1.56918840      47.86700000       0.51866370       0.67525204      -0.22487918       0.51866370       0.67525204      -0.22487918 
Ti       5.98708775       3.36822273      12.06588142      -1.43118027       0.59797702       0.81819704      47.86700000      -1.02818944      -0.72474606       0.30889823      -1.02818944      -0.72474606       0.30889823 
Ti       2.97752843      -5.45821934      -0.05925979       1.14561562      -3.27408800       1.45751826      47.86700000      -0.40931392       0.21005685      -0.33211377      -0.40931392       0.21005685      -0.33211377 
Ti       4.32576630      -4.39480785       2.29598874       0.77629330      -3.49778101      -0.00886205      47.86700000       0.21172085       1.04139567       0.18354429       0.21172085       1.04139567       0.18354429 
Ti       3.00287750      -5.06066505       4.76778369      -0.60281869      -3.20811104       0.85984389      47.86700000      -0.79822621       0.18784646       0.18822118      -0.79822621       0.18784646       0.18822118 
Ti       4.84374106      -4.19615671       7.54364513      -1.23007553       2.01981730       0.10167507      47.86700000      -1.38021851      -0.45149105      -0.26279433      -1.38021851      -0.45149105      -0.26279433 
Ti       3.05928474      -5.01963119       9.95280408      -1.37382218      -0.34693476       0.97249491      47.86700000      -0.29769805       0.46058428      -1.97896733      -0.29769805       0.46058428      -1.97896733 
Ti       4.30170333      -4.29860226      12.05521962       0.41155742      -2.25674999      -2.27616848      47.86700000       0.74523911       0.32430610       0.26779976       0.74523911       0.32430610       0.26779976 
Ti       4.59365965      -3.08164150      -0.20948890      -2.39996093      -1.60178338      -1.51894906      47.86700000       0.28118397       1.28314963       0.88568327       0.28118397       1.28314963       0.88568327 
Ti       5.88132681      -1.37596067       2.49593032       0.62130645       3.02456592       3.71243077      47.86700000      -0.52277227      -1.04913496      -0.58684495      -0.52277227      -1.04913496      -0.58684495 
Ti       4.47566167      -2.52885092       4.99739775      -1.40273307       2.57366535       4.68576548      47.86700000       0.17710295      -0.73826365      -0.72952859       0.17710295      -0.73826365      -0.72952859 
Ti       6.15849154      -1.63803960       7.16229558      -0.54821540      -2.07682652       2.50815978      47.86700000       0.08900153      -0.03870251       0.67520460       0.08900153      -0.03870251       0.67520460 
Ti       4.56524093      -2.29242865       9.50608818      -2.56271475      -1.09267209      -3.77702577      47.86700000      -0.28100015      -0.65274588       0.18089158      -0.28100015      -0.65274588       0.18089158 
Ti       5.66232208      -1.57102869      11.94329367       1.88503808       3.63119975      -1.28759456      47.86700000       0.54427192       0.19133509       0.22481144       0.54427192       0.19133509       0.22481144 
Ti       5.62785980       0.04695329      -0.14986722       0.46561718      -0.42146106       0.11251447      47.86700000      -0.69284990      -0.28776507       0.48876992      -0.69284990      -0.28776507       0.48876992 
Ti       7.49184247       0.84096256       2.18843250       2.87790519       2.33136246      -0.19986751      47.86700000      -0.80692774      -0.37212222       0.53609855      -0.80692774      -0.37212222       0.53609855 
Ti       5.82099817      -0.12915583       4.88711949       0.70415238      -0.10796795       1.75763550      47.86700000       0.38830762       1.09497856      -0.47818514       0.38830762       1.09497856      -0.47818514 
Ti       7.51828137       0.96233058       7.04751208      -0.99432872      -1.94833979      -3.04543660      47.86700000       0.05180075      -0.32867905       0.04933498       0.05180075      -0.32867905       0.04933498 
Ti       6.18549829       0.19928022       9.47549741      -3.65362154       2.08512568       0.41586404      47.86700000      -0.32145202      -0.43852407       0.49941200      -0.32145202      -0.43852407       0.49941200 
Ti       7.61715411       0.75028024      11.89223543      -0.07423158      -1.14210463      -1.31012580      47.86700000      -1.30355066      -0.49482563       0.85062384      -1.30355066      -0.49482563       0.85062384 
