53
Lattice="4.425 -7.66432482349 0.0 4.425 7.66432482349 0.0 0.0 0.0 14.4519894824" Properties=species:S:1:pos:R:3:momenta:R:3:masses:R:1:force:R:3:forces:R:3 energy=-310.526171432 config_type=HMD_iter9 pbc="T T T"
Ti       1.86236974       1.19788167       1.79045164       1.58505479      -4.01635625       0.53702840      47.86700000       0.37060133      -0.42360469       0.91921913       0.37060133      -0.42360469       0.91921913 
Ti      -0.09647814       0.06961002       5.16560563       0.51095957       0.79994946       1.41519196      47.86700000       0.97517120      -0.23086923      -0.06407393       0.97517120      -0.23086923      -0.06407393 
Ti       1.50440341       0.71746146       7.31798347      -1.41644384       5.31486294      -1.86954564      47.86700000      -0.09787116       0.33732182      -0.14422436      -0.09787116       0.33732182      -0.14422436 
Ti      -0.11907376       0.10183231       9.68436516      -0.02053456       0.75232153      -0.80804443      47.86700000      -0.35723935       0.85634588       0.29923552      -0.35723935       0.85634588       0.29923552 
Ti       1.83742931       0.80750680      12.06663171       1.77858278      -0.41155302       1.01887607      47.86700000      -0.67093698      -0.71203201       0.07925950      -0.67093698      -0.71203201       0.07925950 
Ti       0.34203874       0.95425659      -0.15377414       1.33808210       0.63284053       0.82508346      47.86700000       0.08286339       0.66133247       0.34145139       0.08286339       0.66133247       0.34145139 
Ti       3.18170737       3.84410785       1.97351512       0.09817274       1.49716352       0.65313481      47.86700000       0.55921179       0.17031171       1.36431904       0.55921179       0.17031171       1.36431904 
Ti       1.99146377       2.44753488       4.47676845       1.85827494       0.33899192      -2.27495304      47.86700000      -1.13051794      -0.01875963      -0.18158724      -1.13051794      -0.01875963      -0.18158724 
Ti       2.91728106       3.27113612       7.16885480      -1.56542919      -1.47528562      -1.24612264      47.86700000      -0.25822580       0.64723445       0.00821045      -0.25822580       0.64723445       0.00821045 
Ti       1.54613647       2.57933606       9.76130109      -1.46333922      -0.36582220       0.73341557      47.86700000      -0.73690139       0.00566704      -0.88142891      -0.73690139       0.00566704      -0.88142891 
Ti       2.74354374       3.25075575      11.94383480       3.57894646      -0.51399118      -4.06256991      47.86700000       0.80434480       1.02832679      -0.23935140       0.80434480       1.02832679      -0.23935140 
Ti       1.93775407       4.65667781      -0.30484016       0.86180812       0.81579286      -3.00535311      47.86700000      -0.38447319      -0.26965892       0.35166044      -0.38447319      -0.26965892       0.35166044 
Ti       4.83123969       6.65928072       2.79323201      -0.47297652      -3.17927045       2.02738461      47.86700000       0.53341021      -1.38549113      -0.49682103       0.53341021      -1.38549113      -0.49682103 
Ti       2.91076067       5.21531965       4.64896110       0.12005147       4.65782310      -3.43333372      47.86700000       3.07331095       0.49901476       0.49087087       3.07331095       0.49901476       0.49087087 
Ti       4.28589676       5.77898252       7.44233727       0.88064591       1.07484335      -0.02274159      47.86700000      -0.27514309       0.80346440      -0.61842022      -0.27514309       0.80346440      -0.61842022 
Ti       3.10600213       5.28241769       9.93076383      -0.50154949      -1.97510747      -1.40354181      47.86700000      -1.21644306       0.05589633      -0.20796148      -1.21644306       0.05589633      -0.20796148 
Ti       4.38295033       6.01260275      12.33181505       3.23773306       0.12378863      -5.46035876      47.86700000      -0.09069200       0.32038263      -0.26617050      -0.09069200       0.32038263      -0.26617050 
Ti       0.80285636      -2.52551069       0.32948016      -0.14276912       0.00939440       1.25544759      47.86700000      -0.13272594       0.56659074      -0.21231180      -0.13272594       0.56659074      -0.21231180 
Ti       3.32022899      -1.72868685       2.46807681       0.41307492      -3.11707639       0.47122101      47.86700000      -0.50495778       0.90874181       0.11605796      -0.50495778       0.90874181       0.11605796 
Ti       1.61673968      -2.49413149       5.07615140      -2.43420143       1.04863398      -0.58152619      47.86700000       0.42938747       0.46438356      -0.78638227       0.42938747       0.46438356      -0.78638227 
Ti       3.03451634      -1.64832338       7.24502006       2.44382668       1.26142997       4.44959521      47.86700000       0.27149357       0.07197149      -0.56071221       0.27149357       0.07197149      -0.56071221 
Ti       1.36566164      -1.99276328       9.59191163      -0.29368633       3.66070716       0.01081971      47.86700000       0.58538450      -0.76613211       0.67182170       0.58538450      -0.76613211       0.67182170 
Ti       2.98623515      -1.82841037      11.86972759       2.65974726      -1.64111121      -3.35457692      47.86700000      -0.39365382      -0.13485303       0.86679963      -0.39365382      -0.13485303       0.86679963 
Ti       3.82836941      -0.55059756       0.21670482      -0.93778315      -3.60158002      -0.42343630      47.86700000      -0.02355851       0.52154981      -0.48082141      -0.02355851       0.52154981      -0.48082141 
Ti       4.70752688       1.21973507       2.37766613       0.59086076       1.09449745       1.35728573      47.86700000      -0.48826463      -0.50264983      -0.08615094      -0.48826463      -0.50264983      -0.08615094 
Ti       3.09848482       0.05046338       4.72076559      -0.32282501      -1.61813550       1.33333427      47.86700000      -0.35839936      -0.41724183       0.15441353      -0.35839936      -0.41724183       0.15441353 
Ti       4.39957596       1.01321031       7.09262057      -0.64770496      -0.03309193       0.22156971      47.86700000       0.37348095      -0.26191989       0.37370219       0.37348095      -0.26191989       0.37370219 
Ti       3.05002184       0.12427125       9.68415895      -0.17697956      -2.88886281      -1.31405671      47.86700000       0.30424569       0.37075382      -0.35231025       0.30424569       0.37075382      -0.35231025 
Ti       4.23606238       0.90583552      12.22998487       3.65347048      -0.53427549       2.27210242      47.86700000       1.00470746      -0.16271586      -0.59069770       1.00470746      -0.16271586      -0.59069770 
Ti       3.58951188       2.29966280      -0.11868108      -3.14544758      -0.76706383      -2.35333312      47.86700000      -0.43751071       0.06347341       0.23575270      -0.43751071       0.06347341       0.23575270 
Ti       6.11942350       3.86176552       2.23212142      -2.01949876       1.74141056      -1.22877410      47.86700000      -0.70318302      -0.55762030       0.71608525      -0.70318302      -0.55762030       0.71608525 
Ti       4.54133251       2.91408479       4.76767022       0.57380510       0.05337942      -1.48106469      47.86700000       0.68888267      -0.60745753       0.12233290       0.68888267      -0.60745753       0.12233290 
Ti       5.98401118       3.62893457       7.40491207      -4.04448867      -3.44676931      -0.03856686      47.86700000      -0.26658759      -0.49954179      -0.53772516      -0.26658759      -0.49954179      -0.53772516 
Ti       4.58242003       2.86976790       9.90140480      -2.69914917       2.07677691       3.50296646      47.86700000       0.55665818      -0.44354621      -1.16430467       0.55665818      -0.44354621      -1.16430467 
Ti       5.75994195       3.56768595      12.25458091       0.04762306       0.45996679      -0.27184953      47.86700000       0.15800502      -0.48551283       0.39620040       0.15800502      -0.48551283       0.39620040 
Ti       1.90654661      -5.83633020       0.20757890      -1.14588702      -1.86294270      -0.26992369      47.86700000       0.00081178       0.61635618      -0.50613541       0.00081178       0.61635618      -0.50613541 
Ti       4.65281704      -4.14080967       1.97741796      -3.02429276      -0.36397615      -0.90454612      47.86700000       0.40156064       0.02675434      -0.40584933       0.40156064       0.02675434      -0.40584933 
Ti       3.36720752      -5.15792109       4.47318703       0.17854726      -0.37052393       1.43710152      47.86700000      -0.31716601       1.35465931       0.44869242      -0.31716601       1.35465931       0.44869242 
Ti       4.58776111      -4.34530835       7.23474376       3.28985659       2.07531493       2.14865233      47.86700000      -0.31931118       0.01902775      -0.72988096      -0.31931118       0.01902775      -0.72988096 
Ti       2.45537869      -4.76859507       9.75062834       1.42450552       1.69326254      -0.00622225      47.86700000       0.93689323      -0.85755659       0.67980782       0.93689323      -0.85755659       0.67980782 
Ti       4.38805738      -4.45058053      12.07110570      -1.99645722       0.77748218       0.28301114      47.86700000      -0.50054729      -0.45091854      -0.27073276      -0.50054729      -0.45091854      -0.27073276 
Ti       3.48742448      -3.31142220       0.03222122      -1.59057739      -2.17577968       2.34877073      47.86700000      -0.19111253      -0.32822695      -0.08439134      -0.19111253      -0.32822695      -0.08439134 
Ti       6.21523396      -1.43315044       2.11342860      -1.82811648       1.96805583      -3.13803128      47.86700000      -1.19995971       0.00358225       1.76500745      -1.19995971       0.00358225       1.76500745 
Ti       5.10424505      -2.58248008       4.50015219       1.38129838      -1.27385528      -0.92883231      47.86700000      -3.72046587      -0.48567947       0.29160527      -3.72046587      -0.48567947       0.29160527 
Ti       5.93375289      -1.61827427       7.26168956      -1.09378535       3.26844010       0.72231786      47.86700000       0.31118759       0.01667181      -0.32840172       0.31118759       0.01667181      -0.32840172 
Ti       4.41395639      -2.54158010       9.39225830       0.00269792      -3.31554583       2.70182247      47.86700000       0.19222544      -0.46335070       1.00581389       0.19222544      -0.46335070       1.00581389 
Ti       5.47749116      -1.75808792      12.31975428       2.48436692      -1.44335014       0.37675647      47.86700000       0.72320351      -0.11626737      -0.59716597       0.72320351      -0.11626737      -0.59716597 
Ti       7.07168152      -0.81773663       0.12136403       1.06282476      -5.04297192       0.07405143      47.86700000       0.77139904       0.13851919      -1.09259372       0.77139904       0.13851919      -1.09259372 
Ti       7.67808158       1.20337408       2.58262297      -1.78560782      -1.39645963      -1.10551371      47.86700000       0.08435440      -0.10581220      -0.15980970       0.08435440      -0.10581220      -0.15980970 
Ti       5.91593087       0.27061186       4.71254225       0.50432152       1.05560443       1.92769523      47.86700000       0.33427854      -0.59144635       0.43520521       0.33427854      -0.59144635       0.43520521 
Ti       7.31868185       1.12232871       7.20529078      -0.02254234       0.97454275       1.54323349      47.86700000      -0.39791728      -0.59880458       0.51669638      -0.39791728      -0.59880458       0.51669638 
Ti       5.82889305      -0.05118937       9.60180269      -0.09158546       4.42373896       1.08836706      47.86700000       0.25832422       0.54915284       0.39692700       0.25832422       0.54915284       0.39692700 
Ti       7.13351300       0.67643169      12.22989097      -1.67548068       3.17974173       4.25058169      47.86700000       0.38836763       0.80018297      -1.00073168       0.38836763       0.80018297      -1.00073168 
