53
Lattice="4.425 -7.66432482349 0.0 4.425 7.66432482349 0.0 0.0 0.0 14.4519894824" Properties=species:S:1:pos:R:3:momenta:R:3:masses:R:1:force:R:3:forces:R:3 energy=-309.921079459 config_type=HMD_iter7 pbc="T T T"
Ti       1.63553313       1.19512459       2.45843040       1.23773431       3.38514884       1.08108298      47.86700000       0.29084684      -0.60475079      -0.40598279       0.29084684      -0.60475079      -0.40598279 
Ti       0.17131728      -0.05499119       4.70428132      -3.33502155      -4.06892068      -3.02474875      47.86700000       1.17697535       0.47078037       0.28727170       1.17697535       0.47078037       0.28727170 
Ti       1.74474274       0.94200466       7.29475910       2.01200447      -0.66208622      -0.48630346      47.86700000      -0.21106179      -0.39014438       0.25810035      -0.21106179      -0.39014438       0.25810035 
Ti      -0.07232817       0.54358296       9.61286977      -2.09009067      -1.81180383      -5.47530704      47.86700000      -0.24116189      -1.29486642       0.08949204      -0.24116189      -1.29486642       0.08949204 
Ti       1.71936274       0.91819473      12.02416749      -0.25284515      -1.96583440       0.49180016      47.86700000       0.25258238       0.30661282       0.14393913       0.25258238       0.30661282       0.14393913 
Ti       0.10702639       0.67068632      -0.21774262      -1.88113449       0.37813377       3.44821683      47.86700000       0.62966289      -0.23915741       0.71688224       0.62966289      -0.23915741       0.71688224 
Ti       3.19495478       3.67053624       2.52966312      -0.23336618       3.28951841      -3.08391056      47.86700000       0.38178512      -0.00131118      -0.86284891       0.38178512      -0.00131118      -0.86284891 
Ti       1.90392635       2.80174137       4.92366147      -1.13752099       1.57625567       0.01624000      47.86700000      -0.56029893      -0.04106415      -0.24544251      -0.56029893      -0.04106415      -0.24544251 
Ti       3.23355473       3.51032765       6.96080776      -0.83409881      -0.74774194      -1.43953603      47.86700000      -0.15401907      -0.07944675       0.87329099      -0.15401907      -0.07944675       0.87329099 
Ti       1.54496032       2.82565251       9.90784658      -1.13217977      -3.48233696      -2.04299319      47.86700000       0.05161813      -0.13370930      -0.46214421       0.05161813      -0.13370930      -0.46214421 
Ti       3.02749064       3.76407725      11.91368987      -2.10401662       1.09426597      -0.80061031      47.86700000       0.36547315      -0.48795489       0.33486059       0.36547315      -0.48795489       0.33486059 
Ti       2.52698373       4.84971343       0.01603281      -1.14067584      -0.84350151      -2.10707212      47.86700000       0.52625662      -0.11838254       0.17186632       0.52625662      -0.11838254       0.17186632 
Ti       4.55105803       6.27197314       1.84212967       0.30393877      -3.03669194      -3.17415765      47.86700000      -0.19957341      -0.22371584       0.15079741      -0.19957341      -0.22371584       0.15079741 
Ti       3.38821569       5.43439361       4.81646827      -0.83007743       1.17659556       2.70617790      47.86700000      -1.05252698      -0.35258751      -0.92121512      -1.05252698      -0.35258751      -0.92121512 
Ti       4.56423162       6.04078058       7.01452299      -0.70155748      -1.11394448       1.13966860      47.86700000       0.14112799       0.47828355       0.64491821       0.14112799       0.47828355       0.64491821 
Ti       2.65186958       5.38108158       9.55805862      -2.41635245       0.68710041      -1.40614201      47.86700000       0.53882077       0.57354947      -0.02517015       0.53882077       0.57354947      -0.02517015 
Ti       4.46523075       6.17109947      11.90574626       0.69434945      -2.72364468       1.81065790      47.86700000      -0.40968410       0.71596425       0.45844794      -0.40968410       0.71596425       0.45844794 
Ti       0.63364693      -2.95836626       0.05671421       1.02846810      -5.02743990      -2.87662829      47.86700000       1.31530394       0.04783170      -0.11967127       1.31530394       0.04783170      -0.11967127 
Ti       2.99069981      -1.55629913       2.46105463      -0.26027271       2.62853843       5.40178204      47.86700000      -0.39851339      -0.36775872      -0.47667097      -0.39851339      -0.36775872      -0.47667097 
Ti       1.68950639      -2.67213488       4.71263622       0.53399830       0.17271740      -2.89523387      47.86700000       0.70807533       0.58312663       0.11267699       0.70807533       0.58312663       0.11267699 
Ti       3.21771285      -1.64034620       7.21213687       0.29816771       1.01930999       2.22599935      47.86700000      -1.22573730      -0.55856100      -0.23585746      -1.22573730      -0.55856100      -0.23585746 
Ti       0.91642195      -2.59792263       9.56073794       0.25984058       2.99284237       2.16511232      47.86700000       0.77808709       0.56150374      -0.76053972       0.77808709       0.56150374      -0.76053972 
Ti       2.94738064      -1.70318753      12.06663148      -2.83637255       1.56704848       3.27971913      47.86700000       0.01328777      -0.46445844       1.51562935       0.01328777      -0.46445844       1.51562935 
Ti       2.97193938      -0.55976110      -0.35120117      -1.76861108       0.25520848       1.90896865      47.86700000      -0.38017244      -0.03739611       0.42410232      -0.38017244      -0.03739611       0.42410232 
Ti       4.49257282       0.85300077       2.47849263       1.15060277       3.75735373      -2.38054208      47.86700000       0.14652690       0.53110868      -1.06446644       0.14652690       0.53110868      -1.06446644 
Ti       3.10195652       0.17891152       4.71694764      -0.20092016      -3.04032197       3.12458611      47.86700000       0.01538409      -0.39183916       0.50736465       0.01538409      -0.39183916       0.50736465 
Ti       4.52268136       0.95828447       7.28992537       0.79891368      -0.40674727       0.90943017      47.86700000      -0.35556700      -0.47733011      -0.57695201      -0.35556700      -0.47733011      -0.57695201 
Ti       2.54894964      -0.30274503      10.07320684      -0.25980008       2.46287576      -1.38179629      47.86700000       0.16386380       1.30348206      -1.44054502       0.16386380       1.30348206      -1.44054502 
Ti       4.75039494       0.78985424      12.07767265      -1.67678575      -2.91613731      -0.39210226      47.86700000      -1.16201378       0.73422355       0.21258196      -1.16201378       0.73422355       0.21258196 
Ti       3.75715749       2.12020677      -0.10012359       2.19768441       1.04898875       2.98011574      47.86700000      -0.38731440      -0.04752547       0.47568000      -0.38731440      -0.04752547       0.47568000 
Ti       6.33050154       3.13710846       2.55934829      -1.98934273       0.02522559       3.72207856      47.86700000      -0.31547263       1.26610379      -0.75325640      -0.31547263       1.26610379      -0.75325640 
Ti       4.79173149       2.78267012       4.52564374      -1.77702201       0.00154445      -4.65893130      47.86700000       0.10290531      -1.18094864       1.28849543       0.10290531      -1.18094864       1.28849543 
Ti       5.94794548       3.28724588       7.18268564       2.73136038       1.06661128       0.41178334      47.86700000       0.64291508       0.64473158      -0.06862904       0.64291508       0.64473158      -0.06862904 
Ti       3.85656424       2.57685835       9.52606190       1.13294629      -3.56519449      -1.94799085      47.86700000       0.11061663      -0.47684383       0.43164858       0.11061663      -0.47684383       0.43164858 
Ti       5.83735587       3.57440997      11.50657368       2.27642705       1.72483782      -1.74855502      47.86700000       0.11608010      -0.74687197       1.34762501       0.11608010      -0.74687197       1.34762501 
Ti       2.42117461      -5.22558559      -0.19701115      -0.44045341       3.25662895       0.89917891      47.86700000      -0.51131070       0.48524546       0.18327286      -0.51131070       0.48524546       0.18327286 
Ti       4.79260253      -4.10893033       2.51037130       1.26676638      -3.11494257      -3.65304478      47.86700000      -0.62629506      -0.20777464       0.53873517      -0.62629506      -0.20777464       0.53873517 
Ti       3.51632967      -5.03982586       5.00127603       0.88515325      -2.21270251       2.92280322      47.86700000      -0.64971227      -0.07312906      -0.24937880      -0.64971227      -0.07312906      -0.24937880 
Ti       4.60597044      -4.55023481       7.51196136       1.42563949      -1.37347387      -0.32222665      47.86700000      -0.02501087       0.89523086      -0.55650757      -0.02501087       0.89523086      -0.55650757 
Ti       2.99756789      -4.53585191       9.78043496       3.55158427      -0.95395646       1.58718133      47.86700000      -0.72619327      -1.10236247       0.16242215      -0.72619327      -1.10236247       0.16242215 
Ti       4.43657409      -4.27559633      12.40117849      -0.69025588       0.96707880       0.99747572      47.86700000       0.56065003      -0.57269814      -0.45437936       0.56065003      -0.57269814      -0.45437936 
Ti       4.30511898      -3.01136375       0.19140348      -3.93116107       2.11103297       1.12987370      47.86700000      -0.86848502       0.57728658      -0.52749647      -0.86848502       0.57728658      -0.52749647 
Ti       5.76067999      -1.49396082       2.54091456       1.76974159      -0.48829288      -0.16250356      47.86700000       0.92984841      -0.79852157      -0.26761256       0.92984841      -0.79852157      -0.26761256 
Ti       4.74661012      -2.38142620       4.90970739       0.00435217       0.42696847       1.88267936      47.86700000      -0.51932537      -0.56317029       0.00065798      -0.51932537      -0.56317029       0.00065798 
Ti       5.87420026      -1.90082288       7.04814915       1.95216189       0.50440148      -3.55784777      47.86700000       0.50108626       0.32076765       0.76194310       0.50108626       0.32076765       0.76194310 
Ti       4.15333431      -2.47205647       9.59898158       0.26843369       1.80504024       4.89328616      47.86700000       0.74872676      -0.16155043       0.25450646       0.74872676      -0.16155043       0.25450646 
Ti       5.86402334      -1.69548493      12.03380880       2.59518832       0.59898905      -2.95881835      47.86700000      -0.30383048      -0.41701103      -0.00375313      -0.30383048      -0.41701103      -0.00375313 
Ti       6.13104942      -0.30961972      -0.03945677      -1.30547910       0.69535482      -1.01667308      47.86700000      -0.59291858       0.82218751       0.56959560      -0.59291858       0.82218751       0.56959560 
Ti       7.42436182       0.81356043       2.73116618      -0.91925219       0.74910922      -0.24887698      47.86700000       0.25185048       0.05407134      -1.16370870       0.25185048       0.05407134      -1.16370870 
Ti       6.19048650       0.06689606       5.03373140       0.79081018      -2.16345871       2.01478748      47.86700000      -0.66493237       0.90720524      -0.08876516      -0.66493237       0.90720524      -0.08876516 
Ti       7.28700034       0.85405558       7.39269753       2.84032145       1.63168158      -1.02171707      47.86700000       0.54375792      -0.25699244       0.17930399       0.54375792      -0.25699244       0.17930399 
Ti       5.69892840       0.18418447       9.79194717      -0.20524422       2.41887144       1.16020633      47.86700000      -0.17940712       0.34605949      -0.67421769      -0.17940712       0.34605949      -0.67421769 
Ti       7.25573762       0.87127084      12.10796402       2.34332142       0.24389639      -0.04662267      47.86700000       0.71642305       0.24447839      -0.69089707       0.71642305       0.24447839      -0.69089707 
