53
Lattice="4.425 -7.66432482349 0.0 4.425 7.66432482349 0.0 0.0 0.0 14.4519894824" Properties=species:S:1:pos:R:3:momenta:R:3:masses:R:1:force:R:3:forces:R:3 energy=-311.447097558 config_type=HMD_iter3 pbc="T T T"
Ti       1.60696675       0.45030327       2.21463884       0.15636457      -1.37368764       1.27659747      47.86700000       0.77434623       0.24659031      -0.00573186       0.77434623       0.24659031      -0.00573186 
Ti      -0.00443824       0.05860395       4.72210565      -0.32305510       0.66130487      -1.97529464      47.86700000       0.22014637      -0.58002496       0.22592406       0.22014637      -0.58002496       0.22592406 
Ti       1.46970038       0.95075168       7.19179130       4.45694227       1.70846503      -1.32014538      47.86700000       0.47288439       0.12228083      -0.17121987       0.47288439       0.12228083      -0.17121987 
Ti      -0.33543064       0.07224964       9.51658122       2.81964616      -0.76119051       1.12778261      47.86700000       3.61081054       0.04089042      -0.01316531       3.61081054       0.04089042      -0.01316531 
Ti       1.50777707       1.09199198      11.69458386       0.92546755       2.98424054       0.69852732      47.86700000       0.71534283      -0.08743671       0.55137064       0.71534283      -0.08743671       0.55137064 
Ti       0.56506289       1.44621879      -0.08941480      -3.49803970      -1.19574320      -0.97041109      47.86700000       0.26096733       0.18327543      -0.20372675       0.26096733       0.18327543      -0.20372675 
Ti       2.60633169       3.01358867       2.75185170       1.49934456       0.47043751       1.07163335      47.86700000       1.06374992       0.43025006      -0.23641569       1.06374992       0.43025006      -0.23641569 
Ti       1.48933300       2.48613666       4.77996779       6.82582841      -0.67661975       0.72629223      47.86700000      -0.60376480       0.45443244      -0.44347311      -0.60376480       0.45443244      -0.44347311 
Ti       3.18085632       3.58415026       7.12551311       1.03745993       4.20725850       1.59610125      47.86700000      -0.06297287       0.03482928       0.00888434      -0.06297287       0.03482928       0.00888434 
Ti       1.65937684       2.75074177       9.28528899      -0.12642954       0.35457111       2.75236059      47.86700000      -0.76948728      -0.14758749       0.99924565      -0.76948728      -0.14758749       0.99924565 
Ti       3.13705685       3.53210915      12.26143675       2.22175658      -1.02703962      -2.91790799      47.86700000       0.03458944       0.21832122      -0.97874549       0.03458944       0.21832122      -0.97874549 
Ti       2.46533754       4.51188522       0.33139675       1.24895184       0.17380844      -0.59168928      47.86700000       0.79404374      -0.75646154      -0.73937406       0.79404374      -0.75646154      -0.73937406 
Ti       4.34147009       5.93680150       2.09484845      -5.91440914       0.01222689      -1.71072036      47.86700000      -0.34532162      -0.14391370       0.85923064      -0.34532162      -0.14391370       0.85923064 
Ti       3.21704458       5.03555937       4.71005387      -1.77146369       0.43689017      -0.64444430      47.86700000      -0.37991658       0.36682416       0.14352015      -0.37991658       0.36682416       0.14352015 
Ti       4.76358604       6.27226670       7.22955572      -0.04821587       1.20407752       0.71802113      47.86700000      -0.30384628      -0.49946689      -0.55637353      -0.30384628      -0.49946689      -0.55637353 
Ti       2.76363764       5.24316823       9.75990397       0.03958896      -0.09328926       0.11904120      47.86700000       1.32295459      -0.57812131       0.73522349       1.32295459      -0.57812131       0.73522349 
Ti       4.48017223       6.24147323      12.20243625      -2.16622772       2.08484674      -0.51387115      47.86700000      -0.41910092      -0.18404711      -0.42770054      -0.41910092      -0.18404711      -0.42770054 
Ti       1.20887756      -2.33371939      -0.11891848       1.21695398       1.17518787      -0.62780576      47.86700000      -0.54257162      -0.36652936       0.77619647      -0.54257162      -0.36652936       0.77619647 
Ti       2.88575083      -1.87355940       2.77158093      -2.45748289      -2.19854958       3.84895941      47.86700000      -0.09575847      -0.65219590      -0.99354814      -0.09575847      -0.65219590      -0.99354814 
Ti       1.53267517      -2.92741384       5.05191671       1.49812245      -4.13746587       4.28988289      47.86700000      -0.51564082       0.91194291      -1.09895401      -0.51564082       0.91194291      -1.09895401 
Ti       3.34728712      -1.72120184       7.23602931       3.03478193       2.00506902       1.13779115      47.86700000      -0.52371748       0.70934183       0.85776485      -0.52371748       0.70934183       0.85776485 
Ti       1.38859111      -2.42319456       9.56307819       0.12746774      -0.36223376      -1.61538213      47.86700000       0.09864176      -0.00848392       0.59915303       0.09864176      -0.00848392       0.59915303 
Ti       2.80264652      -1.60465257      12.18691453       1.73268521       0.97566596       1.13993670      47.86700000       0.79511652       0.88682398      -0.55115049       0.79511652       0.88682398      -0.55115049 
Ti       2.91276929      -0.11667590       0.37378495      -1.89634900      -1.78574695       1.21546784      47.86700000       0.15344468      -0.44413973      -0.54867414       0.15344468      -0.44413973      -0.54867414 
Ti       4.75635501       0.76132447       2.36930670      -0.54403842       1.48336665      -1.41432211      47.86700000      -0.25734418       0.11356135      -0.03571892      -0.25734418       0.11356135      -0.03571892 
Ti       2.78115455      -0.05756522       4.82169512       0.03977560      -1.68048121       0.55586471      47.86700000       0.94811183      -0.35342187       0.33133577       0.94811183      -0.35342187       0.33133577 
Ti       4.46491172       0.91503099       7.36938984      -0.26175574       4.12160368      -0.37570146      47.86700000      -0.03145904       0.01004587      -0.35517397      -0.03145904       0.01004587      -0.35517397 
Ti       2.73663331       0.04674905       9.57831316       3.94462255      -0.23711751      -0.18313210      47.86700000       0.88358330       0.07701625       0.17544864       0.88358330       0.07701625       0.17544864 
Ti       4.92023591       1.16645986      12.15375946       4.99689375       1.04580231      -2.19610745      47.86700000      -1.35027874      -0.08364592      -0.10634063      -1.35027874      -0.08364592      -0.10634063 
Ti       3.73198747       2.57575388       0.05996304       1.42151027       0.63199031      -2.47201234      47.86700000      -0.08952972       0.71034710       0.49657615      -0.08952972       0.71034710       0.49657615 
Ti       5.67018154       3.44573008       2.07941545      -2.10063282      -0.08392927      -1.28827301      47.86700000      -0.43787249       0.23483177       1.20242160      -0.43787249       0.23483177       1.20242160 
Ti       4.33930873       2.25370787       4.73196763       1.71006225      -0.72418562      -0.79383761      47.86700000       0.98763478       0.18842058       0.50934530       0.98763478       0.18842058       0.50934530 
Ti       5.97150606       3.58256283       7.23734761      -4.49144026      -1.75582812       0.38284811      47.86700000       0.09919322      -0.59060667      -0.00468913       0.09919322      -0.59060667      -0.00468913 
Ti       4.45855971       2.76876728       9.56542616      -2.21492681       1.96466450      -1.37464480      47.86700000       0.21279419      -0.39945126       0.47398494       0.21279419      -0.39945126       0.47398494 
Ti       6.14927769       3.67338582      12.19670842      -0.53179916       0.28936077       0.73594312      47.86700000      -0.24175280      -0.21969745      -1.20787197      -0.24175280      -0.21969745      -1.20787197 
Ti       2.55356462      -5.04793383      -0.05785775      -1.46441711      -0.20958596       2.62694948      47.86700000      -0.20016794      -0.70002574       0.20020217      -0.20016794      -0.70002574       0.20020217 
Ti       4.43745808      -4.40160120       2.20742473       0.77761175      -1.41350128      -2.34942961      47.86700000      -0.51029315       0.24495739      -0.26417220      -0.51029315       0.24495739      -0.26417220 
Ti       2.81246012      -5.06485114       4.50117391      -0.69694172      -3.67282295      -2.94517764      47.86700000       0.16247930      -0.53333629      -0.04378944       0.16247930      -0.53333629      -0.04378944 
Ti       4.41151267      -4.21452831       7.06785692      -2.30446203       0.69572119      -2.39038295      47.86700000       0.63123017       0.31413737       0.24142741       0.63123017       0.31413737       0.24142741 
Ti       3.06766395      -4.87013807       9.54326700       0.32394508       1.52765595      -1.04872472      47.86700000      -0.02591009      -0.07034217       0.67635224      -0.02591009      -0.07034217       0.67635224 
Ti       4.76923795      -4.26244400      12.10101981       0.04720778       0.35413618       1.03841416      47.86700000      -0.61718375       0.48602660      -0.33080050      -0.61718375       0.48602660      -0.33080050 
Ti       4.03933314      -2.59934791      -0.06387933      -4.02664560      -0.10792016      -0.85994176      47.86700000       0.44916520      -0.04326024       0.86148051       0.44916520      -0.04326024       0.86148051 
Ti       5.67193855      -1.85530864       2.67274389       0.67321670      -0.09908429      -2.30418544      47.86700000       0.81601008      -0.12604016      -0.65488870       0.81601008      -0.12604016      -0.65488870 
Ti       4.40418125      -2.61734608       5.06884693      -2.12875531      -0.80464129      -1.80184064      47.86700000       0.77921696       0.16247113      -0.47328036       0.77921696       0.16247113      -0.47328036 
Ti       6.42719013      -1.53643866       7.27168578      -2.68187217      -3.37358431       3.27732791      47.86700000      -1.22561074      -0.87337210      -0.37523687      -1.22561074      -0.87337210      -0.37523687 
Ti       4.50355506      -2.26919813       9.79810089       1.41379485      -0.94842825      -1.33399830      47.86700000      -0.37752273      -0.34215266      -0.03876218      -0.37752273      -0.34215266      -0.03876218 
Ti       5.87480955      -1.38188422      12.38452691       0.12429361       2.32992105       5.51702931      47.86700000       0.09366401      -0.85108878       0.24352680       0.09366401      -0.85108878       0.24352680 
Ti       6.20886113      -0.32782947      -0.04434058      -0.38791563      -2.19908318       2.59557975      47.86700000       0.02609749      -0.11430193      -0.35324449       0.02609749      -0.11430193      -0.35324449 
Ti       7.75673321       0.75489538       2.25132004       2.04503723       0.97089042       0.36788906      47.86700000      -1.54457822       0.11595580      -0.25755677      -1.54457822       0.11595580      -0.25755677 
Ti       6.08522700      -0.10049314       4.92525601      -2.38417851       0.54571533      -0.88208328      47.86700000      -1.13985142       0.11647894      -0.62478061      -1.13985142       0.11647894      -0.62478061 
Ti       7.39273751       1.11779618       7.00392239      -0.95332900      -0.93145331       3.90914001      47.86700000       0.26917584       0.13193753       0.38401496       0.26917584       0.13193753       0.38401496 
Ti       6.28061733      -0.00776108       9.45484190      -0.37568120      -0.93125356      -4.45602922      47.86700000      -4.19238476       1.22584560       0.66296276      -4.19238476       1.22584560       0.66296276 
Ti       7.45536842       0.86789733      12.07363570      -0.60886942      -1.63041211       0.63211575      47.86700000       0.12844379       1.01131570      -0.12103282       0.12844379       1.01131570      -0.12103282 
