53
Lattice="4.425 -7.66432482349 0.0 4.425 7.66432482349 0.0 0.0 0.0 14.4519894824" Properties=species:S:1:pos:R:3:momenta:R:3:masses:R:1:force:R:3:forces:R:3 energy=-310.058047209 config_type=HMD_iter1 pbc="T T T"
Ti       1.75694125       0.57622005       2.71772552       4.27242897       0.80378389      -0.54813160      47.86700000      -1.18321405       0.39788395      -0.95989426      -1.18321405       0.39788395      -0.95989426 
Ti       0.05334526       0.11821215       5.06837909      -4.65433774      -0.52872730      -2.47737483      47.86700000      -0.86026509      -0.22263623      -0.71055752      -0.86026509      -0.22263623      -0.71055752 
Ti       1.29700749       0.90750100       7.26046328       1.12409367      -2.27710260       2.22739480      47.86700000       0.19648034       0.17802824       0.71997644       0.19648034       0.17802824       0.71997644 
Ti      -0.30760721       0.04793073       9.58518891       1.70014235      -3.52259909      -2.85582047      47.86700000       0.60530203      -0.43275672       0.52275312       0.60530203      -0.43275672       0.52275312 
Ti       1.37833508       0.92452458      11.95793892      -0.54433133      -1.25902183      -4.15982704      47.86700000       0.43151168       0.04513860       0.52092949       0.43151168       0.04513860       0.52092949 
Ti       1.80043001       2.51628120       0.19267042      -0.82940107      -0.21123930       1.19104075      47.86700000      -0.21521127       0.54547056      -0.77440275      -0.21521127       0.54547056      -0.77440275 
Ti       2.61956909       3.22241423       2.70396370      -3.97215097       0.25737877       2.11623225      47.86700000       1.18806290       1.00786726      -0.33479464       1.18806290       1.00786726      -0.33479464 
Ti       1.25753865       2.54239702       5.02983836      -0.64632154       0.39333605      -1.01671198      47.86700000       0.38094259       0.20353546       0.36451784       0.38094259       0.20353546       0.36451784 
Ti       2.53116014       3.39265410       7.33036804       0.15132540       3.95794703      -2.79623258      47.86700000       0.68378871       0.26686403      -0.37839675       0.68378871       0.26686403      -0.37839675 
Ti       0.97852274       2.90900556       9.60418687      -2.23833373       1.36849153      -0.03254651      47.86700000       1.28069791      -1.53033797      -0.41637403       1.28069791      -1.53033797      -0.41637403 
Ti       2.93616971       3.18966171      11.80876766      -0.66935352      -3.46097792       0.41118457      47.86700000       0.76556275       0.06426073       0.84069684       0.76556275       0.06426073       0.84069684 
Ti       3.29090532       4.94962986       0.18147987       1.63844230       1.57551386      -3.72871849      47.86700000       0.20883066      -0.88988561      -0.21874538       0.20883066      -0.88988561      -0.21874538 
Ti       4.55663501       5.78473032       2.83285306       1.01886054       2.30579850      -3.99530657      47.86700000      -0.62456883      -0.42558810      -1.12315800      -0.62456883      -0.42558810      -1.12315800 
Ti       2.92080913       5.38575364       5.05553964      -0.71221358      -1.40158499       2.96172554      47.86700000      -0.33066018      -0.82198467      -0.64232797      -0.33066018      -0.82198467      -0.64232797 
Ti       4.28849822       5.90855625       7.32582948       1.73440448       1.84696096       0.22036985      47.86700000       0.49020071       0.53513725      -0.13976615       0.49020071       0.53513725      -0.13976615 
Ti       3.19707692       4.88925827       9.60164562      -1.70673245       0.12916272      -0.38634392      47.86700000      -0.59466826       0.42727415       0.04773684      -0.59466826       0.42727415       0.04773684 
Ti       4.51540849       6.06597686      11.93383658      -0.40124793      -4.16046790      -2.50397323      47.86700000      -0.32768841      -0.60130933       0.42643935      -0.32768841      -0.60130933       0.42643935 
Ti       1.86438990      -2.48362983      -0.24995009       0.43721979       1.94814935       0.63748539      47.86700000      -0.80510553      -0.27435766       0.13946140      -0.80510553      -0.27435766       0.13946140 
Ti       2.84482217      -1.75506657       2.48505783       2.70676801      -0.53854119      -0.99995978      47.86700000       1.23992279      -0.76179488      -0.35227154       1.23992279      -0.76179488      -0.35227154 
Ti       1.42140148      -2.52382091       5.02801471      -0.45008278       0.22839706      -1.45790566      47.86700000       0.54937727       0.52068241      -0.14493051       0.54937727       0.52068241      -0.14493051 
Ti       3.10866068      -1.33854527       7.38614588      -0.45544039       0.83475389       1.88957986      47.86700000      -0.49795939      -0.00670629      -0.77860268      -0.49795939      -0.00670629      -0.77860268 
Ti       1.50748208      -2.51382357       9.33152168       5.89011348       2.39844758      -0.95089716      47.86700000      -0.37423709       0.00755825       0.29950207      -0.37423709       0.00755825       0.29950207 
Ti       2.77695733      -1.65088535      11.55062391      -1.40449880      -1.78862912      -2.66742234      47.86700000       0.77116529      -0.13561820       1.49897301       0.77116529      -0.13561820       1.49897301 
Ti       3.13046281       0.08605012       0.05762894       1.27993353       2.47567405      -2.62053776      47.86700000      -0.12842008      -0.64692982       0.28358081      -0.12842008      -0.64692982       0.28358081 
Ti       4.12957167       0.86662741       2.76782051      -0.64883031      -1.22427801       1.28329536      47.86700000       0.52406238      -0.39004800      -1.57154942       0.52406238      -0.39004800      -1.57154942 
Ti       2.83359550      -0.03194880       4.96592665       0.03456407       1.57027896      -1.90273184      47.86700000      -0.01695928       0.25492017      -0.10235245      -0.01695928       0.25492017      -0.10235245 
Ti       4.38311372       1.09176852       6.83327260       1.69808838       0.33957654       2.49550868      47.86700000       0.11963163      -0.08006013       1.21172191       0.11963163      -0.08006013       1.21172191 
Ti       2.76529082       0.24534896       9.64935164       1.06995482       0.08151604       0.66131518      47.86700000      -0.27675290       0.48973503      -0.15462214      -0.27675290       0.48973503      -0.15462214 
Ti       4.65515148       0.57229507      12.10669660      -1.15281739       2.10695506      -1.18974747      47.86700000      -0.70416481       0.57419151      -0.97170068      -0.70416481       0.57419151      -0.97170068 
Ti       5.00088060       2.08113570      -0.19076631      -0.45606888       1.99252825      -0.29986394      47.86700000      -0.34248973       1.45625493       0.44728894      -0.34248973       1.45625493       0.44728894 
Ti       6.25757263       3.20464678       2.59452512       1.46892565      -2.86509620       2.02684609      47.86700000      -1.47088399       0.24985170      -0.88527051      -1.47088399       0.24985170      -0.88527051 
Ti       4.35707076       2.81907314       4.76535859      -0.75479406      -1.39115459       1.55932740      47.86700000      -0.73468521       0.36682878      -0.03039211      -0.73468521       0.36682878      -0.03039211 
Ti       5.76526216       3.49457921       7.04772604      -0.66684843      -0.44223274      -0.97179049      47.86700000      -0.78798973      -0.15259942       0.95794701      -0.78798973      -0.15259942       0.95794701 
Ti       4.43670542       2.34429591       9.33557917      -2.08018597       1.34814239       2.98470096      47.86700000      -0.42269835       0.62391488       0.54786376      -0.42269835       0.62391488       0.54786376 
Ti       6.12693065       3.33264758      11.68664028      -1.83907696      -1.17178135      -2.75344647      47.86700000      -1.73400035       0.70134254       0.73958711      -1.73400035       0.70134254       0.73958711 
Ti       3.28728186      -5.01838228       0.13075043       1.40218366       1.60041288       1.23092782      47.86700000       0.13375393      -0.11595108      -0.05831234       0.13375393      -0.11595108      -0.05831234 
Ti       4.40128859      -4.72433113       2.62478892       1.10060537      -2.41480203       1.55445646      47.86700000       0.25567202       0.81447294      -0.10873060       0.25567202       0.81447294      -0.10873060 
Ti       2.61920822      -4.97443720       4.94111265       0.47784368       0.83752724       2.35947581      47.86700000       0.80260149      -0.79645825      -0.42177630       0.80260149      -0.79645825      -0.42177630 
Ti       3.99991732      -3.79580543       7.05409972      -0.49440645       2.22952260       2.84510312      47.86700000       1.00362750      -0.93181562       0.55750830       1.00362750      -0.93181562       0.55750830 
Ti       2.78938337      -5.14744731       9.61821065      -2.19426331       1.72453059       1.56692463      47.86700000       0.18082337       0.01934815       0.12754829       0.18082337       0.01934815       0.12754829 
Ti       4.49382653      -4.25254546      12.10005954      -1.36286310       0.51935421      -5.03065968      47.86700000       0.13184803       0.58144642       0.35974412       0.13184803       0.58144642       0.35974412 
Ti       4.47494896      -2.34781813      -0.19211735       0.00509774      -1.58932029      -1.54631797      47.86700000       0.37227285      -0.71149645      -0.09424385       0.37227285      -0.71149645      -0.09424385 
Ti       5.94799527      -1.80364737       2.40225344      -1.67360418      -0.54698915       1.55230364      47.86700000      -0.45535672      -0.13131414       0.02921537      -0.45535672      -0.13131414       0.02921537 
Ti       4.36404566      -2.53891651       4.80594615       2.19909395       0.97925878       4.50131182      47.86700000       0.24510761       0.14890552      -0.55552607       0.24510761       0.14890552      -0.55552607 
Ti       6.01877308      -1.50829043       7.20160513       5.20393996      -3.93397600       2.45322293      47.86700000      -0.63644689      -0.52543893       0.13276412      -0.63644689      -0.52543893       0.13276412 
Ti       4.33202033      -2.52224409       9.42031700       2.86824901       4.12366143       1.58521438      47.86700000       0.16234861      -0.15162501       0.52725035       0.16234861      -0.15162501       0.52725035 
Ti       6.09004799      -1.61520373      11.54717199      -2.64699285      -0.16630562      -0.94671229      47.86700000       0.23261616      -1.15807397       1.38906847       0.23261616      -1.15807397       1.38906847 
Ti       6.23065505      -0.47028977      -0.18766885      -2.77934412       1.22178554       0.87714750      47.86700000      -0.03662461       1.05292883       0.56719811      -0.03662461       1.05292883       0.56719811 
Ti       7.43206638       0.51519066       2.53286280       2.19709061       1.01800156       0.84722344      47.86700000      -0.05548224       0.29436311      -0.24908601      -0.05548224       0.29436311      -0.24908601 
Ti       5.72848535       0.04587647       4.83049633      -1.76260589      -0.76204910       5.53972287      47.86700000       0.69212134      -0.15925710      -0.24269701       0.69212134      -0.15925710      -0.24269701 
Ti       7.31299770       1.02202992       7.26131509      -1.14415224      -2.43593071      -1.99218195      47.86700000      -0.11978619      -0.10185341      -0.18682099      -0.11978619      -0.10185341      -0.18682099 
Ti       5.69969305      -0.05944538       9.50389910      -1.95081576      -3.99206643       0.56113577      47.86700000       0.11505095       0.73860937      -0.26175476       0.11505095       0.73860937      -0.26175476 
Ti       7.46629814       1.01722610      12.23281179       0.61274631      -0.13197383      -0.30901485      47.86700000      -0.02706432      -0.41091775      -0.39021565      -0.02706432      -0.41091775      -0.39021565 
53
Lattice="4.425 -7.66432482349 0.0 4.425 7.66432482349 0.0 0.0 0.0 14.4519894824" Properties=species:S:1:pos:R:3:momenta:R:3:masses:R:1:force:R:3:forces:R:3 energy=-310.522240295 config_type=HMD_iter10 pbc="T T T"
Ti       1.53353353       0.77178340       2.55601079      -2.44043527      -0.37092932       3.53768184      47.86700000       0.29501422       0.15902451      -0.68210010       0.29501422       0.15902451      -0.68210010 
Ti      -0.04571724      -0.10726253       5.33690326      -1.59065261      -0.76335902       0.04647110      47.86700000       0.05820658       0.11146607      -1.37664473       0.05820658       0.11146607      -1.37664473 
Ti       1.36360918       1.02999497       7.23474397      -2.61808877       2.19396146       2.25025794      47.86700000       1.14564016      -0.66311409       0.18296713       1.14564016      -0.66311409       0.18296713 
Ti       0.15502133       0.40986107       9.63295872       1.71304350      -1.31381204       1.21348197      47.86700000       0.71400543      -0.93972985       0.83191926       0.71400543      -0.93972985       0.83191926 
Ti       1.71450610       0.91885043      12.09691655       0.04790791       0.18771209       4.86179573      47.86700000       0.14567539      -0.03767701      -0.53053436       0.14567539      -0.03767701      -0.53053436 
Ti       0.66567790       1.94606526      -0.12543173      -4.07204122       1.20579362      -1.70844301      47.86700000       1.75334754       1.77049225      -0.18265181       1.75334754       1.77049225      -0.18265181 
Ti       2.62939070       3.33823390       2.30818154       1.68755780       3.15263046      -1.82012236      47.86700000       1.11664990       0.14403792      -0.92683297       1.11664990       0.14403792      -0.92683297 
Ti       1.52085508       2.38499133       4.51271481       1.08573923      -1.24449789      -2.71741367      47.86700000      -0.50986528       0.49352595       1.27268453      -0.50986528       0.49352595       1.27268453 
Ti       3.12945965       3.29622352       7.04622531       0.91825289       2.20104582      -1.65467147      47.86700000      -0.75268956       0.17757743       0.38563226      -0.75268956       0.17757743       0.38563226 
Ti       2.01370329       2.46404423       9.64079559      -2.67846878       1.21250377      -1.31612126      47.86700000      -0.66841348       0.87633432      -0.01910919      -0.66841348       0.87633432      -0.01910919 
Ti       2.87691636       3.67852090      12.08640365       3.35707195       0.30563572      -2.84678872      47.86700000      -0.16049979      -0.96327417      -0.05676085      -0.16049979      -0.96327417      -0.05676085 
Ti       3.43690823       4.99535033       0.02052052      -0.36945575       0.74957676       0.01054200      47.86700000       0.05087716      -0.32473246       0.13732538       0.05087716      -0.32473246       0.13732538 
Ti       4.42922259       6.31240306       2.84387109       2.83095632       2.05738004       3.25463907      47.86700000       0.47421980      -1.20186968      -0.32203456       0.47421980      -1.20186968      -0.32203456 
Ti       3.18059751       4.94195598       4.86682211       2.09712240      -3.43487778       2.20665733      47.86700000      -0.25866413       0.17316874       0.07604923      -0.25866413       0.17316874       0.07604923 
Ti       4.58977192       6.07590825       7.42239983      -0.01836818      -1.24892102       2.58903778      47.86700000      -0.47819867       0.16253213       0.08853499      -0.47819867       0.16253213       0.08853499 
Ti       3.32009361       5.04387565       9.57758927      -3.30496795       0.72585867      -0.38234852      47.86700000       0.39801329      -0.55348111       0.07475633       0.39801329      -0.55348111       0.07475633 
Ti       4.76933170       6.15770621      12.05584807       3.02149525      -2.29130764       1.31695627      47.86700000      -1.28913712       0.53898310       0.15979669      -1.28913712       0.53898310       0.15979669 
Ti       1.92698800      -1.67694814       0.48851779       0.42448947      -0.34863303       0.97209576      47.86700000      -0.64393808       0.29022124      -0.62743342      -0.64393808       0.29022124      -0.62743342 
Ti       3.17270694      -1.66487699       2.78788179      -0.70948115       0.67791114       2.75068554      47.86700000      -0.16539465       0.26425044      -0.15600139      -0.16539465       0.26425044      -0.15600139 
Ti       1.58000463      -2.69867377       5.20353686      -0.44443330       4.41499218       0.69923240      47.86700000       0.17658198       1.51959741      -2.93654907       0.17658198       1.51959741      -2.93654907 
Ti       3.22723108      -1.67728917       7.30990200       1.06798031      -3.20756394      -1.77713840      47.86700000      -0.36501702      -0.27609275      -0.28237934      -0.36501702      -0.27609275      -0.28237934 
Ti       1.83294668      -2.20990663       9.57666786       0.51635556      -0.63251845       0.78871598      47.86700000       0.05063337      -1.40699626       0.87970248       0.05063337      -1.40699626       0.87970248 
Ti       3.13620674      -1.53840736      12.20291944       3.30394330       0.64105718      -1.32168897      47.86700000      -0.39355088       0.00885685       0.02861112      -0.39355088       0.00885685       0.02861112 
Ti      -0.50207088       0.04951552       0.30715676       1.79494049      -1.50271698       1.90583988      47.86700000       0.00392051      -1.01556794      -0.58527924       0.00392051      -1.01556794      -0.58527924 
Ti       4.58164941       1.15612547       2.21536264      -2.83560063       3.55523871       1.79245141      47.86700000      -0.80122853      -0.60027778      -0.16973216      -0.80122853      -0.60027778      -0.16973216 
Ti       2.92493320       0.03056994       4.94775453      -3.89317201       1.18893094      -0.59143753      47.86700000      -0.26078102      -0.57350571       0.12878773      -0.26078102      -0.57350571       0.12878773 
Ti       4.63379952       0.74944517       7.11606005      -3.97486013      -0.22917927       1.37500447      47.86700000      -0.51723276       0.67425567       0.44363024      -0.51723276       0.67425567       0.44363024 
Ti       3.30419558      -0.01338686       9.49486130      -1.62567094      -0.10283114       2.68652773      47.86700000      -0.17684608       0.01829183       0.10132366      -0.17684608       0.01829183       0.10132366 
Ti       4.64041913       0.71424780      11.77875915      -2.85128273       1.50012457       0.29337293      47.86700000      -0.01927959       0.79608646       0.06254087      -0.01927959       0.79608646       0.06254087 
Ti       3.88292964       2.23888329      -0.40834288      -2.08794960      -3.06278077       1.43474536      47.86700000       0.15743742      -0.47276321       0.82794157       0.15743742      -0.47276321       0.82794157 
Ti       5.64875931       3.78732872       2.41435149      -1.19894386       0.24548425      -2.00379153      47.86700000       0.03051737      -0.27032626      -0.05025784       0.03051737      -0.27032626      -0.05025784 
Ti       4.32751114       2.31962790       4.68639699      -0.42689186      -0.88059633       1.59047690      47.86700000       1.07139128       0.61749834      -0.21456208       1.07139128       0.61749834      -0.21456208 
Ti       5.99971369       3.61764488       6.99606381       3.56767244       2.22269132      -4.00937173      47.86700000      -0.49381229      -1.85947236       2.29000659      -0.49381229      -1.85947236       2.29000659 
Ti       4.75909183       2.49090860       9.43130528       1.36093022       0.10143020      -1.04326099      47.86700000      -0.00811508       0.13797496       0.18064863      -0.00811508       0.13797496       0.18064863 
Ti       5.77385598       3.64650908      12.01041860      -1.61742283       2.61875424      -3.09258641      47.86700000       0.07125086       0.01232068       0.13078862       0.07125086       0.01232068       0.13078862 
Ti       2.59654282      -5.15969928       0.17429071       0.96447414       1.22079388      -1.74014803      47.86700000      -1.48242629      -0.35235611      -0.32250282      -1.48242629      -0.35235611      -0.32250282 
Ti       4.40069142      -4.22554555       2.16894652      -2.31084026      -3.18545687       0.23199917      47.86700000      -0.82590965      -0.52567225       0.88819961      -0.82590965      -0.52567225       0.88819961 
Ti       3.06815059      -5.18765757       4.82735186       3.25539280       2.03905509      -1.15425864      47.86700000      -0.52937003       0.09542069      -0.65763531      -0.52937003       0.09542069      -0.65763531 
Ti       4.43526833      -4.37436339       7.16187709       3.61821317      -1.21117909      -0.82565623      47.86700000       0.47876763       0.98845683      -0.19430154       0.47876763       0.98845683      -0.19430154 
Ti       2.96719330      -5.17892837       9.36328541      -0.67563439      -1.64354622      -1.35252229      47.86700000       0.05121091       0.94995161       0.87597530       0.05121091       0.94995161       0.87597530 
Ti       4.04678271      -4.12375313      11.72865111       1.57422388      -0.66763804       0.91385719      47.86700000       1.23405738      -0.56491468       0.20052055       1.23405738      -0.56491468       0.20052055 
Ti       4.28260776      -2.96656060      -0.15396254       0.11957981       0.10148316      -3.89331741      47.86700000       1.12255792       0.20233610       0.02662204       1.12255792       0.20233610       0.02662204 
Ti       5.99695421      -1.79516730       2.14734661       0.74510772      -2.12678001      -2.09248743      47.86700000      -0.06678012      -0.11085503       0.52248277      -0.06678012      -0.11085503       0.52248277 
Ti       4.77944511      -2.68685674       4.65922247       1.99583235       0.82287133      -2.17510240      47.86700000      -0.86275059      -0.61096724       0.26560661      -0.86275059      -0.61096724       0.26560661 
Ti       5.82773047      -1.81751493       7.07103954      -1.51844614      -3.25921973      -0.00846903      47.86700000       1.66274043       0.04711686       0.55143986       1.66274043       0.04711686       0.55143986 
Ti       4.92412175      -2.55684191       9.62627489      -0.42812777       0.80896936       1.57004718      47.86700000      -0.71889500      -0.40966675      -0.41723142      -0.71889500      -0.40966675      -0.41723142 
Ti       5.90738939      -1.76343393      12.13464899       0.49703688      -1.53817316       0.50706700      47.86700000       0.54295952       0.11193087       0.36555744       0.54295952       0.11193087       0.36555744 
Ti       5.71691884      -0.36413180       0.04297066       1.23182961      -0.35471850       3.17375414      47.86700000      -0.94695534       0.61432497      -0.52376811      -0.94695534       0.61432497      -0.52376811 
Ti       7.22745215       0.71419629       2.64476186       3.97230095      -4.10044221       2.31098785      47.86700000       0.44954130       1.44367113       0.08474071       0.44954130       1.44367113       0.08474071 
Ti       5.74834278      -0.12325113       4.76622641      -0.06781760      -1.76973332       0.50009250      47.86700000       0.71288407      -0.18770341      -0.01995497       0.71288407      -0.18770341      -0.01995497 
Ti       7.29523304       0.98927576       7.31960764      -0.27800468      -1.50214104      -1.78977601      47.86700000      -0.21916605      -0.58301898      -0.54439484      -0.21916605      -0.58301898      -0.54439484 
Ti       6.44692105      -0.36440915       9.73221262      -0.48674698       1.20414052      -2.03347644      47.86700000      -1.02001541       1.09911043      -0.56600993      -1.02001541       1.09911043      -0.56600993 
Ti       7.32350119       0.99779386      12.08196463      -2.24564494       4.63752632      -3.43407593      47.86700000       0.66683106       0.00521930       0.29986983       0.66683106       0.00521930       0.29986983 
53
Lattice="4.425 -7.66432482349 0.0 4.425 7.66432482349 0.0 0.0 0.0 14.4519894824" Properties=species:S:1:pos:R:3:momenta:R:3:masses:R:1:force:R:3:forces:R:3 energy=-311.884590033 config_type=HMD_iter2 pbc="T T T"
Ti       1.41103293       0.68186430       2.72025428      -2.15215128      -0.28879754       0.45130380      47.86700000      -0.16097454      -0.82552911      -0.56038217      -0.16097454      -0.82552911      -0.56038217 
Ti      -0.36018817      -0.03201414       5.07360715       2.81791593       1.71569017      -2.22601015      47.86700000       0.89383185      -0.45001030      -1.37225741       0.89383185      -0.45001030      -1.37225741 
Ti       1.39171697       0.55124250       7.22352365      -2.14120227       2.39185294       1.37603538      47.86700000       0.32031877       0.05601539      -0.11606078       0.32031877       0.05601539      -0.11606078 
Ti      -0.04756481      -0.10132205       9.39710900      -0.27061273      -1.31140351      -0.98994431      47.86700000       0.44189993       0.70468185       1.10951299       0.44189993       0.70468185       1.10951299 
Ti       1.61021511       0.69949574      12.02087064       0.02421160      -1.60208277       1.80684097      47.86700000       0.06397744       0.62614180       0.12007922       0.06397744       0.62614180       0.12007922 
Ti       0.90036481       2.21092023       0.08730160      -3.12660945       0.77100024       1.61021529      47.86700000      -0.20880696       0.39151236      -0.15970653      -0.20880696       0.39151236      -0.15970653 
Ti       2.61240806       3.17853705       2.36428016       1.47028337       1.57296587       0.21267228      47.86700000       0.98035779       0.71513381      -0.27148455       0.98035779       0.71513381      -0.27148455 
Ti       1.60560477       2.22604601       4.75327887       1.04790792      -2.62746048      -2.17770881      47.86700000      -1.01399930       0.68686199       0.79210604      -1.01399930       0.68686199       0.79210604 
Ti       2.79771673       3.11677235       7.26549611       2.24694921       0.04219130       0.29084332      47.86700000       0.62762567       0.23401457      -1.06503743       0.62762567       0.23401457      -1.06503743 
Ti       1.64450418       2.45654899       9.62948687       2.05819560       1.43477261      -2.28619668      47.86700000      -0.84800935      -0.32542595       0.39572547      -0.84800935      -0.32542595       0.39572547 
Ti       2.74112933       3.55776916      12.41342042       0.87732321       0.10343943      -1.29242630      47.86700000       0.14600866      -0.19862798      -0.50693325       0.14600866      -0.19862798      -0.50693325 
Ti       2.94207092       5.38692464       0.24863576       0.96344153       0.06421408      -3.35082447      47.86700000      -0.02974585       0.00600395      -1.03038814      -0.02974585       0.00600395      -1.03038814 
Ti       4.09643407       5.96074314       2.42948358      -0.32774452       0.55114830      -0.67215651      47.86700000       0.75119476       0.28356831       0.60406227       0.75119476       0.28356831       0.60406227 
Ti       2.69531886       5.00827282       4.80685772       2.30598152      -1.55855620      -0.60633700      47.86700000       0.94399374      -0.87614214      -0.09696597       0.94399374      -0.87614214      -0.09696597 
Ti       4.47093080       5.71137448       7.28300220      -2.50159587      -4.22823526      -0.61707231      47.86700000       0.54196287      -0.24361985      -1.13282189       0.54196287      -0.24361985      -1.13282189 
Ti       2.93587267       4.92412255       9.19542813      -0.60198379      -2.09131351       3.42597089      47.86700000       0.32735532       0.37936267       2.18029367       0.32735532       0.37936267       2.18029367 
Ti       4.48946537       5.96792938      11.69012445      -3.19463120      -1.99759437       1.05632787      47.86700000      -0.32776962      -0.08574294       0.62344774      -0.32776962      -0.08574294       0.62344774 
Ti       1.27881354      -2.10783638      -0.02573869       2.28454701       2.13475195       1.51548705      47.86700000       0.37276723      -0.08229786      -0.24077204       0.37276723      -0.08229786      -0.24077204 
Ti       3.01694058      -1.86750992       2.36716311       3.77883929       2.90782876      -0.03615975      47.86700000      -0.12182234       0.85483083      -0.13252132      -0.12182234       0.85483083      -0.13252132 
Ti       1.37136820      -2.44319621       4.65827320      -0.96565115       1.78462071      -0.61646235      47.86700000      -0.25409878      -0.07424612       0.77223641      -0.25409878      -0.07424612       0.77223641 
Ti       3.18648052      -1.91438861       7.22851250      -2.93230124      -2.42558995       0.26775562      47.86700000      -0.22317085       0.13941611       0.14112868      -0.22317085       0.13941611       0.14112868 
Ti       1.68771866      -2.49247634       9.49488841      -0.01395451      -0.90415211       1.25177290      47.86700000       0.07442288      -0.50307113      -0.15590036       0.07442288      -0.50307113      -0.15590036 
Ti       2.97079356      -1.41240923      12.02588469      -1.07805220      -0.17210874       6.55972290      47.86700000       0.60796290      -0.61959506       0.13942025       0.60796290      -0.61959506       0.13942025 
Ti       3.11540323       0.05230194       0.12800931       0.11846360       3.65283778      -5.00186504      47.86700000      -0.52669849       0.92947188      -0.35625532      -0.52669849       0.92947188      -0.35625532 