54
Lattice="9.959999999999999 0.0 0.0 0.0 9.959999999999999 0.0 0.0 0.0 9.959999999999999" Properties=species:S:1:pos:R:3:force:R:3 virial="-61.39333741170933 -6.51041720534096e-15 -1.372860158888046e-14 -6.51041720534096e-15 -61.319025206905316 -1.3822276656583207e-14 -1.372860158888046e-14 -1.3822276656583207e-14 -61.31902520690537" energy=-322.0975071106088 stress="0.06213599074985499 6.589171403664527e-18 1.3894671593019204e-17 6.589171403664527e-18 0.062060779616774885 1.3989479814654664e-17 1.3894671593019204e-17 1.3989479814654664e-17 0.06206077961677495" pbc="T T T"
Ti       0.16000000       0.00000000       0.00000000      -0.24398015      -0.00000000      -0.00000000
Ti       3.32000000       0.00000000       0.00000000      -0.02944358      -0.00000000      -0.00000000
Ti       6.64000000       0.00000000       0.00000000      -0.07354233      -0.00000000       0.00000000
Ti       0.00000000       3.32000000       0.00000000      -0.00976238       0.03120300       0.00000000
Ti       3.32000000       3.32000000       0.00000000       0.02064025       0.06207130      -0.00000000
Ti       6.64000000       3.32000000       0.00000000       0.01428586      -0.04954438      -0.00000000
Ti       0.00000000       6.64000000       0.00000000      -0.00976238      -0.03120300       0.00000000
Ti       3.32000000       6.64000000       0.00000000       0.02064025      -0.06207130      -0.00000000
Ti       6.64000000       6.64000000       0.00000000       0.01428586       0.04954438      -0.00000000
Ti       0.00000000       0.00000000       3.32000000      -0.00976238      -0.00000000       0.03120300
Ti       3.32000000       0.00000000       3.32000000       0.02064025      -0.00000000       0.06207130
Ti       6.64000000       0.00000000       3.32000000       0.01428586      -0.00000000      -0.04954438
Ti       0.00000000       3.32000000       3.32000000      -0.00557159       0.01112835       0.01112835
Ti       3.32000000       3.32000000       3.32000000      -0.00483608      -0.00408859      -0.00408859
Ti       6.64000000       3.32000000       3.32000000      -0.00310413       0.00572809       0.00572809
Ti       0.00000000       6.64000000       3.32000000      -0.00557159      -0.01112835       0.01112835
Ti       3.32000000       6.64000000       3.32000000      -0.00483608       0.00408859      -0.00408859
Ti       6.64000000       6.64000000       3.32000000      -0.00310413      -0.00572809       0.00572809
Ti       0.00000000       0.00000000       6.64000000      -0.00976238      -0.00000000      -0.03120300
Ti       3.32000000       0.00000000       6.64000000       0.02064025       0.00000000      -0.06207130
Ti       6.64000000       0.00000000       6.64000000       0.01428586      -0.00000000       0.04954438
Ti       0.00000000       3.32000000       6.64000000      -0.00557159       0.01112835      -0.01112835
Ti       3.32000000       3.32000000       6.64000000      -0.00483608      -0.00408859       0.00408859
Ti       6.64000000       3.32000000       6.64000000      -0.00310413       0.00572809      -0.00572809
Ti       0.00000000       6.64000000       6.64000000      -0.00557159      -0.01112835      -0.01112835
Ti       3.32000000       6.64000000       6.64000000      -0.00483608       0.00408859       0.00408859
Ti       6.64000000       6.64000000       6.64000000      -0.00310413      -0.00572809      -0.00572809
Ti       1.66000000       1.66000000       1.66000000       0.04273205       0.09735193       0.09735193
Ti       4.98000000       1.66000000       1.66000000       0.02190929       0.00113921       0.00113921
Ti       8.30000000       1.66000000       1.66000000       0.04001204      -0.07866552      -0.07866552
Ti       1.66000000       4.98000000       1.66000000       0.00322737       0.00000000      -0.01763132
Ti       4.98000000       4.98000000       1.66000000      -0.03086206       0.00000000       0.00083478
Ti       8.30000000       4.98000000       1.66000000      -0.00389127      -0.00000000       0.01785702
Ti       1.66000000       8.30000000       1.66000000       0.04273205      -0.09735193       0.09735193
Ti       4.98000000       8.30000000       1.66000000       0.02190929      -0.00113921       0.00113921
Ti       8.30000000       8.30000000       1.66000000       0.04001204       0.07866552      -0.07866552
Ti       1.66000000       1.66000000       4.98000000       0.00322737      -0.01763132       0.00000000
Ti       4.98000000       1.66000000       4.98000000      -0.03086206       0.00083478       0.00000000
Ti       8.30000000       1.66000000       4.98000000      -0.00389127       0.01785702      -0.00000000
Ti       1.66000000       4.98000000       4.98000000       0.00518146      -0.00000000      -0.00000000
Ti       4.98000000       4.98000000       4.98000000       0.00019582      -0.00000000      -0.00000000
Ti       8.30000000       4.98000000       4.98000000       0.00247132      -0.00000000      -0.00000000
Ti       1.66000000       8.30000000       4.98000000       0.00322737       0.01763132      -0.00000000
Ti       4.98000000       8.30000000       4.98000000      -0.03086206      -0.00083478      -0.00000000
Ti       8.30000000       8.30000000       4.98000000      -0.00389127      -0.01785702       0.00000000
Ti       1.66000000       1.66000000       8.30000000       0.04273205       0.09735193      -0.09735193
Ti       4.98000000       1.66000000       8.30000000       0.02190929       0.00113921      -0.00113921
Ti       8.30000000       1.66000000       8.30000000       0.04001204      -0.07866552       0.07866552
Ti       1.66000000       4.98000000       8.30000000       0.00322737      -0.00000000       0.01763132
Ti       4.98000000       4.98000000       8.30000000      -0.03086206      -0.00000000      -0.00083478
Ti       8.30000000       4.98000000       8.30000000      -0.00389127       0.00000000      -0.01785702
Ti       1.66000000       8.30000000       8.30000000       0.04273205      -0.09735193      -0.09735193
Ti       4.98000000       8.30000000       8.30000000       0.02190929      -0.00113921      -0.00113921
Ti       8.30000000       8.30000000       8.30000000       0.04001204       0.07866552       0.07866552
