54
Lattice="8.850000000000001 0.0 0.0 -4.424999999999998 7.664324823492285 0.0 0.0 0.0 14.053800000000003" Properties=species:S:1:pos:R:3:force:R:3 virial="28.93504015252355 -0.3224886653704708 0.06491522298661631 -0.3224886653704708 28.887020249972934 -0.0018511970357908342 0.06491522298661631 -0.0018511970357908342 24.890226897618728" energy=-327.51002698197533 stress="-0.03035380553743805 0.00033830118033651606 -6.809819666980247e-05 0.00033830118033651606 -0.03030343108569149 1.9419663681018284e-06 -6.809819666980247e-05 1.9419663681018284e-06 -0.026110663854293538" pbc="T T T"
Ti       0.08525917       0.00000000       0.13539156      -0.52766236      -0.00718985      -0.84978581
Ti       2.95000000       0.00000000       0.00000000       0.12906292      -0.04984399       0.02061145
Ti       5.90000000       0.00000000       0.00000000       0.13265940       0.03596521       0.01880643
Ti      -1.47500000       2.55477494       0.00000000       0.03989571      -0.09864742       0.01884774
Ti       1.47500000       2.55477494       0.00000000       0.02146179       0.09266133       0.01990280
Ti       4.42500000       2.55477494       0.00000000       0.01611970       0.00056221       0.02108664
Ti      -2.95000000       5.10954988       0.00000000       0.03544654      -0.00349482       0.01977030
Ti       0.00000000       5.10954988       0.00000000       0.01464792      -0.00542446       0.02106806
Ti       2.95000000       5.10954988       0.00000000       0.03417767       0.03055232       0.01952037
Ti       0.00000000       0.00000000       4.68460000      -0.02407739       0.00014411       0.10071039
Ti       2.95000000       0.00000000       4.68460000       0.01438663       0.01581395       0.00336337
Ti       5.90000000       0.00000000       4.68460000       0.00585198      -0.00193552      -0.00200233
Ti      -1.47500000       2.55477494       4.68460000      -0.00654833       0.00476968       0.00399828
Ti       1.47500000       2.55477494       4.68460000       0.01065946      -0.00464630      -0.00243020
Ti       4.42500000       2.55477494       4.68460000      -0.00762352       0.00047917      -0.01354913
Ti      -2.95000000       5.10954988       4.68460000      -0.00152643      -0.02082258       0.00736989
Ti       0.00000000       5.10954988       4.68460000      -0.01097104       0.00003824      -0.01647252
Ti       2.95000000       5.10954988       4.68460000       0.00636944       0.00642362      -0.00422961
Ti       0.00000000       0.00000000       9.36920000      -0.02869951       0.00025619       0.09079449
Ti       2.95000000       0.00000000       9.36920000       0.00801160       0.00025124      -0.00493713
Ti       5.90000000       0.00000000       9.36920000       0.01473076      -0.01400889      -0.00049121
Ti      -1.47500000       2.55477494       9.36920000       0.00778170       0.00110820      -0.00393289
Ti       1.47500000       2.55477494       9.36920000      -0.00757935      -0.00031702       0.00012855
Ti       4.42500000       2.55477494       9.36920000      -0.00976413      -0.00117946      -0.01621397
Ti      -2.95000000       5.10954988       9.36920000       0.00430786      -0.00701608      -0.00746477
Ti       0.00000000       5.10954988       9.36920000      -0.00654750       0.00128949      -0.01329146
Ti       2.95000000       5.10954988       9.36920000      -0.00392193       0.02025802       0.00120382
Ti      -0.00000000       1.70318329       2.34230000      -0.00949593       0.16996741       0.12157613
Ti       2.95000000       1.70318329       2.34230000      -0.02869845      -0.00928188      -0.01827218
Ti       5.90000000       1.70318329       2.34230000       0.00820939      -0.01107271      -0.00059717
Ti      -1.47500000       4.25795823       2.34230000      -0.00510012      -0.00357629      -0.00979612
Ti       1.47500000       4.25795823       2.34230000       0.01398281      -0.00899561       0.00110767
Ti       4.42500000       4.25795823       2.34230000      -0.01159086       0.02022915      -0.00752485
Ti      -2.95000000       6.81273317       2.34230000       0.20823728      -0.12514039       0.21611905
Ti       0.00000000       6.81273317       2.34230000      -0.00086302       0.01211646      -0.00167943
Ti       2.95000000       6.81273317       2.34230000      -0.08346394      -0.04221301       0.02237491
Ti      -0.00000000       1.70318329       7.02690000       0.00146042      -0.00394264      -0.00576817
Ti       2.95000000       1.70318329       7.02690000       0.00242047       0.00171222       0.01423049
Ti       5.90000000       1.70318329       7.02690000      -0.00385677       0.00224113       0.01335081
Ti      -1.47500000       4.25795823       7.02690000       0.00058832       0.00122721      -0.01219395
Ti       1.47500000       4.25795823       7.02690000      -0.00104066      -0.00024981      -0.01206565
Ti       4.42500000       4.25795823       7.02690000      -0.00027574      -0.00375734       0.01380696
Ti      -2.95000000       6.81273317       7.02690000      -0.00054212       0.00113370      -0.00856953
Ti       0.00000000       6.81273317       7.02690000      -0.00152342      -0.00104874      -0.01201457
Ti       2.95000000       6.81273317       7.02690000       0.00633418       0.00278952      -0.00391703
Ti      -0.00000000       1.70318329      11.71150000      -0.00072116      -0.12591141       0.09692989
Ti       2.95000000       1.70318329      11.71150000      -0.00434996       0.00626391      -0.00008829
Ti       5.90000000       1.70318329      11.71150000      -0.01909481       0.00282417      -0.01560990
Ti      -1.47500000       4.25795823      11.71150000       0.01337265       0.00962797       0.00117337
Ti       1.47500000       4.25795823      11.71150000      -0.00501654      -0.00250950      -0.01040692
Ti       4.42500000       4.25795823      11.71150000      -0.01458955      -0.00893136      -0.00977616
Ti      -2.95000000       6.81273317      11.71150000      -0.06966896       0.04091967       0.04518268
Ti       0.00000000       6.81273317      11.71150000      -0.00680750      -0.00953315      -0.00737927
Ti       2.95000000       6.81273317      11.71150000       0.15144444       0.08906474       0.15742568
