54
Lattice="4.425 -7.66432482349 0.0 4.425 7.66432482349 0.0 0.0 0.0 24.451989482400002" Properties=species:S:1:pos:R:3:momenta:R:3:masses:R:1:force:R:3:forces:R:3 energy=-301.957706519 config_type=HMD_iter9 pbc="T T T"
Ti       0.50001914      -0.35654264       0.32715693      -0.12611239       0.59184785       1.54081533      47.86700000      -1.50734484       0.36676608      -0.22065219      -1.50734484       0.36676608      -0.22065219 
Ti       1.92688164       0.74008334       2.54745428      -0.03592082      -2.24635093      -0.79570321      47.86700000      -1.73873245       0.37690111       0.06249607      -1.73873245       0.37690111       0.06249607 
Ti      -0.06728469       0.22858075       4.85389049       0.11249530      -3.41531736       3.39509039      47.86700000       0.44474738      -0.19964495       0.24971974       0.44474738      -0.19964495       0.24971974 
Ti       1.46980288       0.57731248       7.17799920      -2.06109951       0.16354596       5.37623195      47.86700000      -0.19325063       0.88208894       0.10982334      -0.19325063       0.88208894       0.10982334 
Ti      -0.23365108       0.30393738      10.08680967      -2.48654648      -0.03071931      -0.24877876      47.86700000       0.28455624       0.46958990      -3.79754273       0.28455624       0.46958990      -3.79754273 
Ti       0.83624819       1.49206360      11.69658893      -0.23063776      -0.86962130       1.24102594      47.86700000       0.89954710       0.70849336       0.53709440       0.89954710       0.70849336       0.53709440 
Ti       2.05823355       1.81191849       0.01977392       1.23816417       1.90615964       0.55005870      47.86700000      -0.14677785       0.19113733      -0.42205295      -0.14677785       0.19113733      -0.42205295 
Ti       3.20138381       3.30216684       2.16720824       0.81825530       0.88281080       2.26346831      47.86700000       0.11300507       1.47942317      -0.40248380       0.11300507       1.47942317      -0.40248380 
Ti       1.78621216       2.59180653       4.63843551       2.41536795      -0.24140353      -1.74087831      47.86700000      -0.59657723       0.53999618       0.42532123      -0.59657723       0.53999618       0.42532123 
Ti       3.18724967       3.29795361       7.12408903      -0.51970642       2.37163452      -2.13807484      47.86700000       0.26888354       0.62354655      -1.02070952       0.26888354       0.62354655      -1.02070952 
Ti       1.72553772       2.45201095       9.11547595      -1.78945995       4.87574443       1.57169426      47.86700000      -0.88543855       0.24065279       1.00808699      -0.88543855       0.24065279       1.00808699 
Ti       2.35767382       4.12921582      11.29907511       1.65204526       0.26879832       0.47760025      47.86700000      -0.82085522      -2.55265626       3.89367323      -0.82085522      -2.55265626       3.89367323 
Ti       2.81423350       4.85931553       0.50530460       0.82203479       2.60421296       0.32494606      47.86700000       0.36766135      -0.18227873       0.62306566       0.36766135      -0.18227873       0.62306566 
Ti       4.27318729       6.02953956       2.68233913       4.04939886       0.47041481      -1.88349409      47.86700000       0.62712152      -0.24060224      -0.29167755       0.62712152      -0.24060224      -0.29167755 
Ti       3.26467173       5.37366747       4.88581574      -0.37344347      -1.19772632      -2.15588153      47.86700000      -0.64646986      -1.01473479       0.79132911      -0.64646986      -1.01473479       0.79132911 
Ti       4.76881475       6.02646169       7.51705589      -1.32766740      -1.41249546      -1.29632064      47.86700000      -0.68599478      -0.44994938      -0.56747005      -0.68599478      -0.44994938      -0.56747005 
Ti       2.76713032       5.15179948       9.36722645      -2.88733690      -2.52664230      -0.83403674      47.86700000       1.28215612       1.70485372      -2.87154739       1.28215612       1.70485372      -2.87154739 
Ti       4.02246438       6.74314506      11.96066687      -6.70902160      -0.22172769       2.93691199      47.86700000      -0.81282632      -2.30024887       2.33392533      -0.81282632      -2.30024887       2.33392533 
Ti       1.67226487      -2.85404390       0.64251635       0.52634364      -0.26798754       0.75578524      47.86700000      -0.05643281       0.41751525       0.39122259      -0.05643281       0.41751525       0.39122259 
Ti       2.73245854      -1.82658756       2.45955970      -0.82817482      -1.39377438      -1.01309320      47.86700000       0.69161174      -1.06422323      -0.90357167       0.69161174      -1.06422323      -0.90357167 
Ti       1.76334833      -2.70465921       5.05979370      -0.50242741      -1.46982647      -2.51805154      47.86700000      -1.25601434       0.23256511       0.06644863      -1.25601434       0.23256511       0.06644863 
Ti       3.01308037      -1.80891862       7.41363479      -0.08698140      -1.83440146      -1.09992271      47.86700000       0.45104853      -0.04703205       0.15989223       0.45104853      -0.04703205       0.15989223 
Ti       1.30113969      -2.57625250      10.12733895      -1.27218521       1.69286696       3.64582306      47.86700000      -0.08766222      -0.54218681      -0.23608601      -0.08766222      -0.54218681      -0.23608601 
Ti       2.23657542      -0.79978028      11.94184562       0.62451853      -0.10582021      -0.09131890      47.86700000       0.85587097      -0.75535799       0.79750465       0.85587097      -0.75535799       0.79750465 
Ti       3.11746994      -0.19261683      -0.43954934       0.08787338       0.19417779      -0.49856737      47.86700000      -0.09987792       0.56834353      -0.03850616      -0.09987792       0.56834353      -0.03850616 
Ti       4.44993487       0.64067910       2.46468034      -1.03430030       2.27655944       2.72385121      47.86700000       0.41525593      -0.51074757      -0.40118414       0.41525593      -0.51074757      -0.40118414 
Ti       2.84676618      -0.23128778       4.94338514       0.64832982       0.46724236       0.79911356      47.86700000       0.57394462       0.68142391       0.25868092       0.57394462       0.68142391       0.25868092 
Ti       4.40939337       0.81266963       7.35692627      -1.01542866      -2.74184516       0.35509462      47.86700000      -0.24757437      -0.25698029      -1.08693857      -0.24757437      -0.25698029      -1.08693857 
Ti       3.00997963      -0.05635045       9.80057984      -0.75382553       2.19788489       3.30321481      47.86700000      -0.74179519      -0.60084467      -0.02934007      -0.74179519      -0.60084467      -0.02934007 
Ti       3.95928163       1.07065722      12.07477173       1.54745926      -1.87152276      -0.93851932      47.86700000      -0.10881954       0.46765250      -0.42011698      -0.10881954       0.46765250      -0.42011698 
Ti       5.26264845       1.98082988      -0.06223423       0.72502694      -0.88612933      -3.60913230      47.86700000      -2.83821886       1.24667773       0.23256958      -2.83821886       1.24667773       0.23256958 
Ti       6.30859577       3.19016835       2.67000517       0.80721769      -1.71310273      -1.84849887      47.86700000      -0.67475509      -0.46649844      -0.77851066      -0.67475509      -0.46649844      -0.77851066 
Ti       4.49487722       2.39004197       4.70813546       0.86854495       1.48387348       2.11732883      47.86700000       0.01618298       0.34604669       0.49652734       0.01618298       0.34604669       0.49652734 
Ti       5.98555429       3.38775317       7.17162853      -0.35488008       4.83129337       0.79726424      47.86700000       0.23900458      -0.63384975       0.80164187       0.23900458      -0.63384975       0.80164187 
Ti       4.47437161       2.46605405       9.60811638       0.95913150       1.25541551       1.70575363      47.86700000      -0.23046245       0.90568058       0.00695684      -0.23046245       0.90568058       0.00695684 
Ti       5.39306390       3.55436692      11.89151128       0.32869148       1.00467562      -1.08849607      47.86700000       0.21561442       0.91981494       0.02997770       0.21561442       0.91981494       0.02997770 
Ti       3.07996291      -5.43606382      -0.23555390      -0.09076286       2.15219357       1.45207722      47.86700000       1.76665130      -1.00725419      -0.27946935       1.76665130      -1.00725419      -0.27946935 
Ti       4.59000869      -4.79051207       2.08963808      -1.48244778       0.09448776      -3.06631809      47.86700000       0.56273352       0.97505485       0.23710180       0.56273352       0.97505485       0.23710180 
Ti       3.29734566      -5.00788599       4.67637499      -1.35009144       1.86553652       1.53499678      47.86700000       0.03563158      -0.54971627       0.30722835       0.03563158      -0.54971627       0.30722835 
Ti       4.60842272      -4.24597988       7.00835198       0.15084614      -1.84124982       0.00623382      47.86700000      -0.67964770      -1.04390206       0.38943418      -0.67964770      -1.04390206       0.38943418 
Ti       2.96481231      -4.80955934       9.99354432       0.53111387      -3.77489971       1.00374142      47.86700000       0.10747675      -0.52993130      -0.90056306       0.10747675      -0.52993130      -0.90056306 
Ti       3.73526820      -3.81369287      12.26868840      -0.20683154       1.85635162      -4.90280844      47.86700000       0.11273283       0.80505820      -0.49102747       0.11273283       0.80505820      -0.49102747 
Ti       4.42776935      -1.97543119       0.13640293       0.61701337      -1.68670190      -2.77604833      47.86700000       0.63417836      -1.04350097       0.75864185       0.63417836      -1.04350097       0.75864185 
Ti       5.65358973      -1.87915861       2.70806820       0.14630876      -2.01594808       1.06024746      47.86700000       0.71222360      -1.00914022      -0.51702605       0.71222360      -1.00914022      -0.51702605 
Ti       4.58927339      -2.44304588       4.97087222       1.96611436       2.63730531       1.83113913      47.86700000      -0.11574026      -0.91353133      -0.61845734      -0.11574026      -0.91353133      -0.61845734 
Ti       6.00276006      -1.88007750       7.10840256      -0.89273315      -2.02689789       1.07331583      47.86700000      -0.04239890       0.59373037      -0.18035192      -0.04239890       0.59373037      -0.18035192 
Ti       4.37407262      -2.87129665       9.58487122      -0.07144786      -1.08625546      -0.26364358      47.86700000       0.28395275       0.81158683       1.13355008       0.28395275       0.81158683       1.13355008 
Ti       5.34773401      -1.06069096      11.76299738       0.67890642      -3.58052826      -4.70787172      47.86700000      -0.23837533      -1.35072275       0.11779764      -0.23837533      -1.35072275       0.11779764 
Ti       6.15717290       0.15926931      -1.09050007      -0.16351218      -0.28535102      -1.83097441      47.86700000       1.48822146      -0.63904169       1.01622754       1.48822146      -0.63904169       1.01622754 
Ti       7.39426628       0.28359676       2.31530274      -0.25282664      -1.04332869      -0.07028925      47.86700000      -0.12972350       0.72122938      -0.74199805      -0.12972350       0.72122938      -0.74199805 
Ti       5.74359036       0.05051204       4.89571561       2.58847381       2.67054792       0.35070237      47.86700000       1.09590448       0.47558418       0.18750491       1.09590448       0.47558418       0.18750491 
Ti       7.27650781       0.59255461       7.42740574      -0.97986444       0.78258189      -1.45970240      47.86700000       0.67430074       0.99973207      -0.83658350       0.67430074       0.99973207      -0.83658350 
Ti       5.66210505      -0.00037276       9.55453270       1.06231173      -5.06084205       0.37596030      47.86700000       0.59305736      -0.31745301       0.49271128       0.59305736      -0.31745301       0.49271128 
Ti       7.13072511       0.92365022      12.18963657       3.91368671       5.25025384      -1.69306210      47.86700000      -0.23151061       1.47088455       0.13771208      -0.23151061       1.47088455       0.13771208 
