54
Lattice="4.425 -7.66432482349 0.0 4.425 7.66432482349 0.0 0.0 0.0 24.451989482400002" Properties=species:S:1:pos:R:3:momenta:R:3:masses:R:1:force:R:3:forces:R:3 energy=-300.928618448 config_type=HMD_iter1 pbc="T T T"
Ti      -0.29525509      -0.30679458       0.19072523      -1.03434567      -1.68624684       2.95525164      47.86700000       0.44016435       0.79047799      -0.12508563       0.44016435       0.79047799      -0.12508563 
Ti       1.63386242       1.13352452       2.54252641       2.15210893       3.10052895       1.93128907      47.86700000      -0.20827631      -0.34453587      -0.90772171      -0.20827631      -0.34453587      -0.90772171 
Ti       0.20296102       0.11206922       4.66671501       2.31551961       0.26041230       0.20716205      47.86700000      -0.12219322      -0.86546602       1.13863010      -0.12219322      -0.86546602       1.13863010 
Ti       1.34940494       0.74926304       6.91543456      -0.16690001      -1.69768737      -2.81666113      47.86700000       0.73955781      -0.38364608       1.24339782       0.73955781      -0.38364608       1.24339782 
Ti       0.05586658       0.03134673       9.52741552      -0.40902668      -0.27971728      -2.19509831      47.86700000      -0.55527203      -0.28671623       0.51712528      -0.55527203      -0.28671623       0.51712528 
Ti       1.36005018       0.82228823      11.66307992      -0.05760161      -1.22662084      -4.73183006      47.86700000       0.44858714       0.07314300       0.10788412       0.44858714       0.07314300       0.10788412 
Ti       1.38923419       2.75352612      -0.07580984      -0.74646634      -0.00970533      -0.16688913      47.86700000      -0.30136492      -0.39080323       0.72631916      -0.30136492      -0.39080323       0.72631916 
Ti       2.96269915       3.39039711       2.70667962       0.51071234       0.53436303       5.44476398      47.86700000       0.16672898       1.00798829       0.20053749       0.16672898       1.00798829       0.20053749 
Ti       1.12349653       2.51572199       5.12762737      -1.96680039      -0.40145603       2.20226573      47.86700000       1.55684017       0.21517976      -1.16389907       1.55684017       0.21517976      -1.16389907 
Ti       2.94110990       3.44142235       7.08731747      -1.13377396       1.11661135      -2.48689556      47.86700000      -0.61671196       0.58547867      -0.29788291      -0.61671196       0.58547867      -0.29788291 
Ti       1.58550178       2.53531225       9.43450197       0.48781451       0.49519896      -4.11152860      47.86700000      -0.35618920       0.42595806       0.16796642      -0.35618920       0.42595806       0.16796642 
Ti       2.81759043       3.29526835      11.85026589       0.63875516      -0.01963163      -2.75531568      47.86700000       0.50655513       0.12142670      -0.40981283       0.50655513       0.12142670      -0.40981283 
Ti       2.93042194       5.13550899       0.44402398      -1.63008994       0.64932368       6.05287185      47.86700000       0.16239806       0.00537701      -0.03395700       0.16239806       0.00537701      -0.03395700 
Ti       4.60862804       6.31026633       2.66245285       2.19461755       2.28618546       2.35634451      47.86700000      -0.46497126      -1.55811562      -1.20204513      -0.46497126      -1.55811562      -1.20204513 
Ti       2.86490411       5.24178941       4.71487224       0.15919630       0.57512696       1.10814598      47.86700000       0.61737342      -0.78380261       1.29256463       0.61737342      -0.78380261       1.29256463 
Ti       4.53277709       5.85396102       7.19905151       1.11378590      -1.40039020      -2.05565946      47.86700000      -0.23231953       0.13163945      -0.80044513      -0.23231953       0.13163945      -0.80044513 
Ti       3.06271106       5.04550356       9.59208580       0.68497805      -0.09881642      -2.11664775      47.86700000      -0.49398796       0.36979399      -0.02233027      -0.49398796       0.36979399      -0.02233027 
Ti       4.39590548       5.96328789      12.02026472      -0.98967808      -0.33420705      -0.78998197      47.86700000      -0.12148382      -0.09648105      -0.38413251      -0.12148382      -0.09648105      -0.38413251 
Ti       1.37619800      -2.78186674      -0.16316703       0.51025558      -1.18334709      -2.26634687      47.86700000       0.34140195       0.46913808       0.44317765       0.34140195       0.46913808       0.44317765 
Ti       2.88374857      -1.59420747       2.51030224       0.34731921       1.05147287       1.50378198      47.86700000       1.09492611      -0.27423596      -1.05819473       1.09492611      -0.27423596      -1.05819473 
Ti       1.60971016      -2.63016878       4.50471542       0.14716727      -0.94513673      -1.35901084      47.86700000      -1.00854365      -0.00873373       1.18244418      -1.00854365      -0.00873373       1.18244418 
Ti       3.09015494      -1.94551389       6.76790140      -0.17514750      -3.06295010      -3.77532374      47.86700000      -1.22345796      -0.19269188       1.61047796      -1.22345796      -0.19269188       1.61047796 
Ti       1.57439417      -2.53213190       9.43964632       0.90720867       0.14448011      -3.40472272      47.86700000      -0.07674621      -0.18013418       0.15517726      -0.07674621      -0.18013418       0.15517726 
Ti       3.01750412      -1.69544856      11.81075914      -0.95297589       0.15576107      -3.74800037      47.86700000      -0.21905254       0.24857289      -0.29005706      -0.21905254       0.24857289      -0.29005706 
Ti       2.68247170       0.02525970       0.21251809      -2.85412751       1.29300609       2.98047387      47.86700000       0.20381113      -0.16665901       0.11811988       0.20381113      -0.16665901       0.11811988 
Ti       4.47860293       0.80567023       2.79155602       0.88497884      -0.95220656       4.87572869      47.86700000       0.35368825      -0.65826583      -0.78162191       0.35368825      -0.65826583      -0.78162191 
Ti       3.00534603      -0.09708588       4.85322639       1.41281060      -1.29547269       0.10708576      47.86700000       0.56072236       0.01098283      -0.55477039       0.56072236       0.01098283      -0.55477039 
Ti       4.17745552       0.79240721       7.18780236      -1.72886161      -0.43892810      -1.91334715      47.86700000       1.06601752       0.09022919      -0.68644782       1.06601752       0.09022919      -0.68644782 
Ti       2.75696970       0.07605012       9.23345671      -1.54567676      -0.20746865      -5.23183808      47.86700000       0.42153015      -0.67744084       0.71978070       0.42153015      -0.67744084       0.71978070 
Ti       4.35480993       0.75961178      12.16395065      -0.11784823       1.03986271       0.84859850      47.86700000       0.23315886       0.14550823      -0.58886139       0.23315886       0.14550823      -0.58886139 
Ti       4.51156088       2.77863128       0.82344872       0.04271311       0.38316670      10.76563519      47.86700000      -0.33995479      -0.85360574      -1.32189418      -0.33995479      -0.85360574      -1.32189418 
Ti       6.22447748       3.12590991       2.56761940       3.32000895      -2.55702748       2.40780792      47.86700000      -0.15067545       1.16305535      -0.48709331      -0.15067545       1.16305535      -0.48709331 
Ti       4.40986906       2.48247263       4.79810502      -0.52394442      -0.46799620       0.64100666      47.86700000      -0.11427830       0.46130199       0.44201696      -0.11427830       0.46130199       0.44201696 
Ti       5.79099246       3.22495042       7.01886308      -0.83669707      -1.77790961      -2.06656509      47.86700000       0.23239839       0.40732995       0.75917813       0.23239839       0.40732995       0.75917813 
Ti       4.33890956       2.36125056       9.14604603      -0.44023754      -0.96908011      -4.52836591      47.86700000       0.36915643       1.05999442       2.23671527       0.36915643       1.05999442       2.23671527 
Ti       5.88862402       3.50219253      12.06514007      -2.59193314       0.48023299      -0.20527345      47.86700000      -0.44867461      -0.41448294      -0.39733704      -0.44867461      -0.41448294      -0.39733704 
Ti       2.84939303      -5.27591256      -0.40527148       0.61948369      -0.32703804      -5.14338783      47.86700000       0.53522136       0.32929805       0.88390614       0.53522136       0.32929805       0.88390614 
Ti       4.66073031      -4.04975712       2.56489668       2.04230602       1.79771946       1.91146366      47.86700000      -0.97999284      -0.43940925      -0.81480484      -0.97999284      -0.43940925      -0.81480484 
Ti       2.98180784      -4.99842088       5.17215783       0.23008129      -0.24210598       3.48633109      47.86700000      -0.35484031      -1.23359735      -1.00412449      -0.35484031      -1.23359735      -1.00412449 
Ti       4.35089906      -4.36844885       7.30917847      -0.70304832      -0.53778694       2.15280436      47.86700000       0.48030654       0.82330250       1.03797908       0.48030654       0.82330250       1.03797908 
Ti       2.86803529      -5.00199842       9.56908647      -1.06317009       0.66916398      -1.95026072      47.86700000      -0.38691461      -0.60050270       0.37548228      -0.38691461      -0.60050270       0.37548228 
Ti       4.32895346      -4.29104523      11.81637806       0.25056292       1.69817181      -3.40621872      47.86700000       0.12704735       0.26907287      -0.40951467       0.12704735       0.26907287      -0.40951467 
Ti       4.36928713      -2.39449124      -0.05845790      -2.35268472       1.02228130      -0.10658378      47.86700000      -0.58009593      -0.55530703       0.66179588      -0.58009593      -0.55530703       0.66179588 
Ti       5.94905398      -1.64939817       2.63395090      -0.10391442       1.51748623       3.51512780      47.86700000      -0.66374270       0.50877523      -0.64914647      -0.66374270       0.50877523      -0.64914647 
Ti       4.42747934      -2.95917787       5.11644511       0.63332692      -2.16414882       1.89520658      47.86700000       0.23841312       1.74064263      -1.07168629       0.23841312       1.74064263      -1.07168629 
Ti       5.70643178      -1.42224822       6.98718057      -0.58394783       1.84658370      -1.70924869      47.86700000       1.32132409      -1.33882972       1.20199581       1.32132409      -1.33882972       1.20199581 
Ti       4.49577504      -2.18460294       9.58891179       1.15034457       3.15726530      -2.61854336      47.86700000       0.43801065      -1.15709984      -0.41247354       0.43801065      -1.15709984      -0.41247354 
Ti       5.89739746      -1.72328880      12.17910151       1.61247555      -0.48150699       1.39191549      47.86700000       0.18264153       0.18940927      -0.35465720       0.18264153       0.18940927      -0.35465720 
Ti       5.74554276       0.11514060       0.17200435      -4.05450348       0.84514004       3.12023528      47.86700000       0.15969646       0.19236889       0.28963810       0.15969646       0.19236889       0.28963810 
Ti       7.60236294       0.80452929       2.65117609       2.08619682       0.33957257       2.70065014      47.86700000       0.03851986       0.66488671      -1.13765812       0.03851986       0.66488671      -1.13765812 
Ti       6.31885951       0.00787029       4.85876912       3.40809467       0.96817695       1.79217408      47.86700000      -1.35914105       0.77453299       0.27823049      -1.35914105       0.77453299       0.27823049 
Ti       7.71832175       0.69267220       7.30889109       1.50797516      -1.69927343       0.07503643      47.86700000      -1.78110216       0.12854346      -0.46640329      -1.78110216       0.12854346      -0.46640329 
Ti       5.82302002      -0.00585465       9.61897268      -0.07655084       0.40541335      -1.25386650      47.86700000       0.54370199       0.38961666       0.10471670       0.54370199       0.38961666       0.10471670 
Ti       7.33798029       1.01576140      12.08527170      -2.53084617      -1.36884542       0.48425320      47.86700000      -0.41991583      -0.33246240      -0.06119857      -0.41991583      -0.33246240      -0.06119857 
