54
Lattice="4.425 -7.66432482349 0.0 4.425 7.66432482349 0.0 0.0 0.0 24.451989482400002" Properties=species:S:1:pos:R:3:momenta:R:3:masses:R:1:force:R:3:forces:R:3 energy=-300.780813423 config_type=HMD_iter3 pbc="T T T"
Ti      -0.18458677       0.30210283       0.35700639      -0.57090117      -1.39775217      -2.17785527      47.86700000       0.46882467      -0.11605815       0.19841121       0.46882467      -0.11605815       0.19841121 
Ti       1.54020970       0.65949423       2.70757958      -2.83099543      -3.93792521      -1.37116517      47.86700000       0.06687305      -0.00945374      -0.81176904       0.06687305      -0.00945374      -0.81176904 
Ti       0.29716175      -0.37830988       4.87056689       0.74467666      -1.75349267      -0.78874952      47.86700000      -0.64962294      -0.39663684      -0.01658277      -0.64962294      -0.39663684      -0.01658277 
Ti       1.47419155       0.40384339       6.82169382      -3.03529473       0.65424041      -2.33416470      47.86700000      -0.38169562       0.00396138       1.83690031      -0.38169562       0.00396138       1.83690031 
Ti       0.16383306      -0.21420089       9.50541161       2.16616218      -0.37086543      -0.87076058      47.86700000       0.34112765       0.20668798      -0.29420880       0.34112765       0.20668798      -0.29420880 
Ti       0.98940099       1.09765848      11.91263951       1.27340937      -1.35948840       5.55740307      47.86700000      -0.25877571      -0.32106303      -0.42081751      -0.25877571      -0.32106303      -0.42081751 
Ti       2.07476629       2.33506951       0.12288236      -1.08161392      -1.99711711      -3.44150252      47.86700000      -4.40891010      -0.70003153       0.14024866      -4.40891010      -0.70003153       0.14024866 
Ti       3.02586424       3.25833001       2.71544580       0.93952802       0.16499018       0.05383687      47.86700000       0.49031325       0.42352083      -0.43065282       0.49031325       0.42352083      -0.43065282 
Ti       1.81324415       2.12261806       4.95112777       3.50319564      -0.68170954       0.56900276      47.86700000       0.53845589       0.44801551      -0.29089995       0.53845589       0.44801551      -0.29089995 
Ti       3.01452388       3.51376834       6.92112016       2.36897944      -0.03415062       0.38405614      47.86700000      -0.22862230       0.04408411       0.36704144      -0.22862230       0.04408411       0.36704144 
Ti       1.64381836       2.37648998       9.10156236       0.66008443       0.84015922      -1.69426716      47.86700000      -0.06113377      -0.80068803       0.35530533      -0.06113377      -0.80068803       0.35530533 
Ti       1.75142971       3.63861651      11.41945823       1.30878110       1.42116426       0.31343039      47.86700000       0.70043745       0.42399332       0.06681161       0.70043745       0.42399332       0.06681161 
Ti       2.98651107       5.24820299       0.24750464      -0.01336158      -3.72855774      -2.42259599      47.86700000       0.53552075       0.06742543       0.14806935       0.53552075       0.06742543       0.14806935 
Ti       4.42388161       6.28686424       2.69377550      -0.85978047      -0.22652322       3.06385479      47.86700000       0.28780464      -0.95955539      -0.16469796       0.28780464      -0.95955539      -0.16469796 
Ti       3.54609171       4.60953707       4.78631519       2.55899445      -0.31500062       1.79634953      47.86700000       0.38089956       0.35658810       0.70326743       0.38089956       0.35658810       0.70326743 
Ti       4.33415578       5.72238154       7.40506755      -0.65284537       1.87525224       1.81415287      47.86700000       0.31844902       0.91557563      -1.18374071       0.31844902       0.91557563      -1.18374071 
Ti       2.81435273       5.26494656       9.50163398      -0.85454234       0.71710277      -3.03645099      47.86700000       0.10539472      -0.81984816       0.29811779       0.10539472      -0.81984816       0.29811779 
Ti       3.55209259       6.34626182      11.70817014      -1.22133450       1.31532635       1.34179827      47.86700000       0.67177909       0.09877138       0.23010920       0.67177909       0.09877138       0.23010920 
Ti       1.64221717      -2.06922999       0.61087917       0.58804207      -3.41088742       2.33258567      47.86700000      -0.73078181      -0.23747289      -0.29639287      -0.73078181      -0.23747289      -0.29639287 
Ti       3.42421270      -1.84215564       2.64768479      -5.13517297      -2.11652362       0.64400734      47.86700000      -0.91875956       0.73338833      -0.38601020      -0.91875956       0.73338833      -0.38601020 
Ti       2.32584471      -2.71991192       5.33032467      -0.74887827       1.21296809      -0.25318431      47.86700000      -1.07972960       0.17620043      -0.78232312      -1.07972960       0.17620043      -0.78232312 
Ti       3.40871024      -1.75769090       7.16647298      -1.59926002       0.73293305      -0.71879622      47.86700000      -1.35347752      -0.56230829       0.34983374      -1.35347752      -0.56230829       0.34983374 
Ti       1.58184297      -2.98612296       9.51519498       1.92287292       0.90547311      -3.30625415      47.86700000      -0.02146868       1.20926366       0.22287318      -0.02146868       1.20926366       0.22287318 
Ti       2.35318863      -1.42955868      11.93628496      -2.71811937      -1.31498957       3.49364064      47.86700000      -0.47502825      -0.11798790      -0.42700140      -0.47502825      -0.11798790      -0.42700140 
Ti       2.76228231       0.10023811       0.02300574       2.24406182       0.44588979       0.25961088      47.86700000       0.11509604       0.54030209      -0.18522481       0.11509604       0.54030209      -0.18522481 
Ti       4.51320251       1.00918976       2.47349853      -1.86501253       4.56347040       1.39512629      47.86700000      -0.96681168      -0.54145253      -0.37200801      -0.96681168      -0.54145253      -0.37200801 
Ti       3.13897796      -0.43346905       5.03385102      -3.09681523       1.07075766      -1.40058106      47.86700000       1.18144671       0.33158902      -1.29567562       1.18144671       0.33158902      -1.29567562 
Ti       4.22604796       0.85248981       7.03406119       6.53999783      -0.05434535      -0.59648217      47.86700000       0.47793378       1.00111003       0.53937285       0.47793378       1.00111003       0.53937285 
Ti       3.06755805      -0.08648661       9.62211254      -1.35974360       1.82694421       2.05813675      47.86700000       0.40846616      -0.00500395      -0.08510885       0.40846616      -0.00500395      -0.08510885 
Ti       3.90640982       1.56632592      11.78962268       0.28447432       1.33334275       1.18383682      47.86700000      -2.71228773      -6.45870673       0.03471819      -2.71228773      -6.45870673       0.03471819 
Ti       4.26901429       2.78261391       0.11397055      -1.32389379      -0.01333101      -3.84248436      47.86700000       5.02597818       0.11578153       0.55301182       5.02597818       0.11578153       0.55301182 
Ti       6.07974686       3.60540378       2.76570216      -1.91575788       2.46844120      -2.06134529      47.86700000      -0.94285312       0.16411864      -0.95406811      -0.94285312       0.16411864      -0.95406811 
Ti       5.22071690       2.28796093       4.76826390      -3.34927301       2.02239050       2.27170148      47.86700000      -1.07870143      -0.37206172       1.05522622      -1.07870143      -0.37206172       1.05522622 
Ti       6.08804345       3.55448451       7.46931812       4.47050471       0.44405089       0.99492300      47.86700000       0.29294237      -1.15144647       0.34515179       0.29294237      -1.15144647       0.34515179 
Ti       4.35555246       2.69222566       9.33033560       1.96230365      -0.66787744      -1.90114064      47.86700000       0.02327185      -0.38646043       0.03811480       0.02327185      -0.38646043       0.03811480 
Ti       4.81955619       3.57186399      11.97933651      -0.16495810      -0.78651322       3.31019064      47.86700000       3.08119528       6.38988388      -0.03160088       3.08119528       6.38988388      -0.03160088 
Ti       3.21052821      -4.56977517       0.49475063       3.67415495      -1.17671051      -1.03251586      47.86700000      -0.80814355      -0.86421971       0.33680316      -0.80814355      -0.86421971       0.33680316 
Ti       4.57971319      -4.39206400       2.49534196      -0.43273229       0.52886659       0.69735746      47.86700000       0.13553021      -0.71835802      -0.61445573       0.13553021      -0.71835802      -0.61445573 
Ti       3.42916014      -5.32879041       4.71326456       4.56358211       3.77314694       0.51545986      47.86700000       0.48803965      -0.06729291       0.56975287       0.48803965      -0.06729291       0.56975287 
Ti       4.52046134      -4.48017161       7.10846603       0.16507985      -0.59363789       1.51967516      47.86700000      -0.42638980       0.40475508       0.08454966      -0.42638980       0.40475508       0.08454966 
Ti       3.05429811      -5.48712360      10.09210490       2.43133031      -0.79075186      -0.98579834      47.86700000       0.71804154       0.83051002      -0.52691191       0.71804154       0.83051002      -0.52691191 
Ti       3.56513197      -3.70007219      11.91481534      -0.24389729       0.41217214       1.32133504      47.86700000      -0.61731538       0.14384948       0.98638267      -0.61731538       0.14384948       0.98638267 
Ti       4.72370038      -2.38049592      -0.05202413      -1.66885501       1.74793373      -1.10488854      47.86700000      -1.12918678      -2.46296909      -0.41488607      -1.12918678      -2.46296909      -0.41488607 
Ti       5.95666251      -1.95118565       1.95051850      -1.20896432      -1.09756857      -2.08801095      47.86700000       0.98223106       0.73403185       0.87910580       0.98223106       0.73403185       0.87910580 
Ti       5.09544353      -2.80641908       4.93702505       0.85191691      -0.21138040       0.26302541      47.86700000       0.17470671       0.03736512      -0.45125749       0.17470671       0.03736512      -0.45125749 
Ti       5.71528092      -1.45236339       7.19885952      -2.60839881      -2.65090285       1.24887772      47.86700000       1.02275546      -0.74876140       0.29505078       1.02275546      -0.74876140       0.29505078 
Ti       4.40933461      -2.87601300       9.58389927       1.00304783       1.45572942      -0.97752566      47.86700000       0.23935065       0.46684703       0.10085844       0.23935065       0.46684703       0.10085844 
Ti       5.29492906      -0.95295593      11.60657040      -0.03606043      -1.15635287      -2.30587395      47.86700000      -0.80246478      -1.17579143       0.18787189      -0.80246478      -1.17579143       0.18787189 
Ti       5.60477587      -0.32663560       0.12749907      -0.58450653      -1.63891371       2.60445261      47.86700000       1.35034743       3.17744956       0.31771463       1.35034743       3.17744956       0.31771463 
Ti       7.04299548       0.84598331       2.44824767      -1.49526123       1.71938965       1.86863889      47.86700000       0.56447678       0.17431613      -0.44381235       0.56447678       0.17431613      -0.44381235 
Ti       6.11554920      -0.65782440       4.87814524       3.38559118       0.99345535       1.25125200      47.86700000       0.03425653       0.37786685      -1.16526677       0.03425653       0.37786685      -1.16526677 
Ti       7.39901278       0.81834960       6.83165376       1.74350554      -2.54083789      -3.72473397      47.86700000      -0.39113517      -0.00639349       1.08656322      -0.39113517      -0.00639349       1.08656322 
Ti       6.03772096       0.23702982       9.38295330      -3.76140112      -0.00758048      -1.20362665      47.86700000      -0.36878316      -0.34763714       0.27805543      -0.36878316      -0.34763714       0.27805543 
Ti       6.92623417       1.16165634      12.09879068      -4.91664596       1.38609651       1.51303566      47.86700000      -0.40986768       0.35040653      -0.55991973      -0.40986768       0.35040653      -0.55991973 
