54
Lattice="4.425 -7.66432482349 0.0 4.425 7.66432482349 0.0 0.0 0.0 24.451989482400002" Properties=species:S:1:pos:R:3:momenta:R:3:masses:R:1:force:R:3:forces:R:3 energy=-301.232352598 config_type=HMD_iter8 pbc="T T T"
Ti      -1.03602117       0.70885107      -0.16204031      -1.30958555       1.71810785      -3.33527114      47.86700000       0.11438032      -1.14641943       0.28601056       0.11438032      -1.14641943       0.28601056 
Ti       0.73817317       1.27609458       2.61829294       2.57635960      -2.04602814      -0.04983101      47.86700000      -0.60060323      -0.88822724       0.17325285      -0.60060323      -0.88822724       0.17325285 
Ti       0.70009263      -0.59631449       5.21553802      -1.46238245      -1.40980258      -1.78970978      47.86700000      -0.20487729      -0.91603166      -0.85219285      -0.20487729      -0.91603166      -0.85219285 
Ti       1.67249970       0.76700097       7.61849039      -3.91008020       1.58533528       1.25758670      47.86700000       0.87643671      -0.63162104      -0.22699594       0.87643671      -0.63162104      -0.22699594 
Ti      -0.02030007      -0.32822916       9.69549565       0.11854272      -0.34012762      -2.24126897      47.86700000       0.64883241      -0.74373354       0.21962628       0.64883241      -0.74373354       0.21962628 
Ti       2.23619666       1.08550718      11.74886577      -0.85562706       6.01744401      -0.20181600      47.86700000       0.31432940      -0.26788773       0.02793611       0.31432940      -0.26788773       0.02793611 
Ti       0.36984529       2.78244610       0.41286145       0.50565650       1.14883846       0.38273118      47.86700000      -0.80302109       0.45035390      -0.77484924      -0.80302109       0.45035390      -0.77484924 
Ti       2.26186106       3.71301770       2.19750296      -1.65581114       2.19002130       3.64638035      47.86700000      -3.24757137       1.30190407       4.78005585      -3.24757137       1.30190407       4.78005585 
Ti       1.95103158       1.79636545       5.20836005      -0.69211191       0.86547260       0.89760765      47.86700000       0.13760254       1.44619502      -0.53209545       0.13760254       1.44619502      -0.53209545 
Ti       3.38556929       3.14993393       7.29412119      -0.55053069      -3.10082266       2.89180210      47.86700000      -0.95883166      -1.01126031      -0.14979176      -0.95883166      -1.01126031      -0.14979176 
Ti       1.06358617       2.33367369       9.81382338       4.50514807       1.16830110      -0.43557207      47.86700000       1.52236773       0.07476385       0.23228551       1.52236773       0.07476385       0.23228551 
Ti       3.86365330       3.74031688      12.21769456      -0.32164071      -1.75467863       3.08939961      47.86700000      -0.34741261       0.49260783       0.43636733      -0.34741261       0.49260783       0.43636733 
Ti       1.54451977       5.25627514       0.01190021       3.38078460       2.67588335      -2.96290248      47.86700000      -0.16211370       1.26674563      -0.06883084      -0.16211370       1.26674563      -0.06883084 
Ti       3.16124358       6.25885037       2.29413562       1.03139027      -0.02050641       1.49053125      47.86700000       0.72928540       0.86837108      -0.91956553       0.72928540       0.86837108      -0.91956553 
Ti       3.30226632       4.51772097       4.78941492      -1.26197299       1.70731102      -2.29691712      47.86700000       0.28274444      -0.23844035      -0.20839337       0.28274444      -0.23844035      -0.20839337 
Ti       4.51172544       5.55765103       6.96823557      -1.43566969       0.46006846      -2.03464313      47.86700000       0.99075784       0.93866285       0.82153065       0.99075784       0.93866285       0.82153065 
Ti       3.20051854       4.62547006       9.60479821       0.71089831      -2.33317035      -2.31233993      47.86700000      -1.23239907       0.28997054       0.39349152      -1.23239907       0.28997054       0.39349152 
Ti       5.49356438       6.01991463      11.58548846       1.17215852       1.14645118       2.88932091      47.86700000       0.14567971      -0.15506421       0.01094384       0.14567971      -0.15506421       0.01094384 
Ti       0.17334325      -2.64039831      -0.02053298      -2.81807806       0.26429025       2.24219574      47.86700000       1.62027750       0.52932333       0.42900263       1.62027750       0.52932333       0.42900263 
Ti       2.05917115      -1.37554055       2.54989708      -2.25135915      -1.77269179      -0.97194634      47.86700000      -0.27529313      -0.11316796      -0.29904249      -0.27529313      -0.11316796      -0.29904249 
Ti       2.07338863      -3.17686370       5.12970447      -0.82335990       0.58437984      -3.61041340      47.86700000       0.43180985       0.67047884      -0.31975789       0.43180985       0.67047884      -0.31975789 
Ti       3.25723622      -1.83553781       7.34136593       1.86262147      -0.04448774      -3.90952369      47.86700000      -0.33651048      -1.56424025      -3.16380349      -0.33651048      -1.56424025      -3.16380349 
Ti       1.32279692      -3.07055930       9.50655620      -2.42715921       0.87402018       0.46833910      47.86700000       1.15835794       0.13144671       0.28619680       1.15835794       0.13144671       0.28619680 
Ti       4.51620841      -0.81694377      11.57053823      -1.88937837       0.75848214      -5.27539715      47.86700000       0.06754663      -0.25060813       0.50568050       0.06754663      -0.25060813       0.50568050 
Ti       1.92120481       0.57543448       0.22615572       1.61822319       1.10271382       2.63772560      47.86700000       0.02779821      -0.94899349       0.19512796       0.02779821      -0.94899349       0.19512796 
Ti       3.60224310       1.25931219       2.43852778      -2.96916119      -0.68418584       2.61794550      47.86700000       0.61723370       0.14377697       0.03217385       0.61723370       0.14377697       0.03217385 
Ti       3.67504412      -0.21540722       4.72627865       5.13422543      -0.13738205      -1.55618999      47.86700000      -0.19683554      -1.14785481       0.75656201      -0.19683554      -1.14785481       0.75656201 
Ti       5.14753030       0.36634707       6.98092406       0.76484299      -1.35357831      -1.68767067      47.86700000      -0.74271398       0.49084493       0.39093139      -0.74271398       0.49084493       0.39093139 
Ti       3.21969119      -0.85046401       9.35177241      -1.30289599       3.84203161       2.19705541      47.86700000      -1.49244932       2.41935499       3.12379732      -1.49244932       2.41935499       3.12379732 
Ti       5.59376643       2.39512415      11.59226080      -1.30224975       2.75971797       0.55575816      47.86700000      -0.37858998      -1.01373517      -0.32399846      -0.37858998      -1.01373517      -0.32399846 
Ti       3.42686841       3.10519856       0.40760248      -4.76575261      -2.23252701      -1.12398078      47.86700000       2.90422829      -2.10935448      -4.50107356       2.90422829      -2.10935448      -4.50107356 
Ti       5.13259734       3.78524902       2.72751478       1.74767048      -0.79830205      -1.89454839      47.86700000      -0.23505699       0.00349295      -0.31689685      -0.23505699       0.00349295      -0.31689685 
Ti       5.09005462       2.13703788       4.91016196       2.05198704       1.13217885      -0.85488148      47.86700000      -0.12455795      -0.21912283      -0.21328484      -0.12455795      -0.21912283      -0.21328484 
Ti       6.10209490       2.98903716       7.41095607       1.40721179      -0.28126558      -2.18091495      47.86700000       0.01433252      -0.46830248      -0.37034505       0.01433252      -0.46830248      -0.37034505 
Ti       4.19981589       1.85528970       9.75617934      -0.56138088       1.99131542       0.11531102      47.86700000       0.23073390       0.25524664       0.05552607       0.23073390       0.25524664       0.05552607 
Ti       7.83177050       4.21517223      12.10543183       3.41754249      -4.08836702      -0.61978719      47.86700000       0.19657405       0.00965826       0.21014790       0.19657405       0.00965826       0.21014790 
Ti       1.67288992      -4.39535428      -0.10217777      -1.55245642      -2.19815555      -2.04531300      47.86700000      -0.58944735       0.89558247       0.15846487      -0.58944735       0.89558247       0.15846487 
Ti       3.39099939      -3.91920111       2.32289899       1.25000741      -0.13845790      -2.18458167      47.86700000       0.14801073       0.04171378       0.15122558       0.14801073       0.04171378       0.15122558 
Ti       3.64341128      -5.69892754       4.66957978       0.99195951      -3.57718988       1.78714674      47.86700000      -1.07840573       0.42217180       0.95045096      -1.07840573       0.42217180       0.95045096 
Ti       4.44913470      -4.48910718       7.42787976       1.45489158      -2.74306744      -2.68399172      47.86700000       0.81230940       0.38221515      -1.59087945       0.81230940       0.38221515      -1.59087945 
Ti       2.94317443      -5.60585137       9.58647794      -0.53132371      -0.52841893       0.89378953      47.86700000      -0.44032028       0.39856158      -0.12582706      -0.44032028       0.39856158      -0.12582706 
Ti       5.66585031      -4.06590673      12.40953808      -2.37925890      -0.34090316       1.25071273      47.86700000      -1.71002118       0.63742574      -0.00857088      -1.71002118       0.63742574      -0.00857088 
Ti       3.13178138      -1.78878361      -0.39642360       0.29473698       0.85526678       3.69450090      47.86700000      -0.01460115      -0.76610365       0.57101712      -0.01460115      -0.76610365       0.57101712 
Ti       4.34787236      -1.49290528       2.30038188      -1.02373684       1.39678464       1.07210903      47.86700000       1.33649813       0.63633426      -0.50003818       1.33649813       0.63633426      -0.50003818 
Ti       4.93698614      -3.09591306       4.77421061       0.75670637       1.72913023       0.94098756      47.86700000       0.01955865       0.03153258       0.26634203       0.01955865       0.03153258       0.26634203 
Ti       6.18100192      -2.19102244       7.39014076       0.11646782       0.07266718       1.07942023      47.86700000      -0.10553645       0.04210473      -0.97478093      -0.10553645       0.04210473      -0.97478093 
Ti       4.61957368      -2.89194348       9.60053863       1.99744374      -4.83184149       0.07786188      47.86700000       0.24789246      -0.05626443       0.73679230       0.24789246      -0.05626443       0.73679230 
Ti       6.96939446      -1.38497966      11.99104791      -1.70729686       1.85711218       3.47614845      47.86700000       0.51859097      -0.02108990      -0.20489669       0.51859097      -0.02108990      -0.20489669 
Ti       5.04229206       0.35362769      -0.04790796      -2.93285352      -0.94969693       2.44604149      47.86700000      -0.15285479       0.05402103       0.69732590      -0.15285479       0.05402103       0.69732590 
Ti       6.63664994       1.28030878       2.20392316       1.25794612      -1.85157396       0.00084589      47.86700000      -0.79464799      -0.27305123       0.15485505      -0.79464799      -0.27305123       0.15485505 
Ti       6.58981368      -0.59349436       4.52928966       3.26667001      -2.05969169       2.96542809      47.86700000      -0.30239308       0.29443805       0.65470403      -0.30239308       0.29443805       0.65470403 
Ti       7.89929149       0.54687150       7.23733081      -0.07819444      -2.02900206       2.74617631      47.86700000      -0.63902689      -0.31009085      -0.77869632      -0.63902689      -0.31009085      -0.77869632 
Ti       6.04793928      -0.42029131       9.65323219      -0.43033451       1.26154860      -1.08923234      47.86700000       0.30141317       0.29398400      -0.21766744       0.30141317       0.29398400      -0.21766744 
Ti       8.21209171       1.47981410      11.77552861       1.80954970       2.48104844      -0.46221475      47.86700000       0.75050967      -0.65261843      -0.06555021       0.75050967      -0.65261843      -0.06555021 
