54
Lattice="4.425 -7.66432482349 0.0 4.425 7.66432482349 0.0 0.0 0.0 24.451989482400002" Properties=species:S:1:pos:R:3:momenta:R:3:masses:R:1:force:R:3:forces:R:3 energy=-302.282625003 config_type=HMD_iter10 pbc="T T T"
Ti       0.23256641       1.17224799       0.21326365      -1.18272818      -3.68665195       5.20327598      47.86700000       0.83969657       0.17657685      -0.18153899       0.83969657       0.17657685      -0.18153899 
Ti       1.50216612       0.42467161       2.71481832      -3.55822424      -1.03903505      -1.49186825      47.86700000       0.44884630      -0.42410146      -0.27188572       0.44884630      -0.42410146      -0.27188572 
Ti      -0.43387956      -0.33749220       4.87570042      -4.01513687       0.34205012       1.92597178      47.86700000       1.37814622      -0.20581598       0.51597634       1.37814622      -0.20581598       0.51597634 
Ti       1.27006635       0.68502967       7.16352267      -0.96517299       0.31227027       4.29905368      47.86700000       0.31509277       0.24944802      -0.14400606       0.31509277       0.24944802      -0.14400606 
Ti       0.06435910      -0.25250685       9.47510733       1.89981238      -0.06192518       1.10081543      47.86700000       0.29054561       0.37372561       1.01345603       0.29054561       0.37372561       1.01345603 
Ti       1.34523872       0.87620739      11.84215047       0.44287737      -0.72559263      -2.29145836      47.86700000      -0.32147571      -0.27997257       0.16130131      -0.32147571      -0.27997257       0.16130131 
Ti       1.87096234       3.92204272      -0.59409841       0.77475847       1.77342603       1.43000764      47.86700000       0.70721044      -0.30479116       0.81470887       0.70721044      -0.30479116       0.81470887 
Ti       2.79021306       2.87723053       2.00207739       2.05115069      -2.37305982      -2.67542377      47.86700000       0.51553961      -0.36854824       0.05399505       0.51553961      -0.36854824       0.05399505 
Ti       1.11752885       2.33755657       4.75872887      -0.47536774       1.77295691      -2.21971361      47.86700000       0.55006184      -0.49409966       0.27204962       0.55006184      -0.49409966       0.27204962 
Ti       2.48358550       3.39822620       7.24747163       5.56856840       0.58405692       0.48519985      47.86700000       1.17477414      -0.93951500      -0.02639649       1.17477414      -0.93951500      -0.02639649 
Ti       1.73763831       2.39276044       9.85298645       2.05580695      -1.94592552      -2.21904878      47.86700000      -1.32259547       0.24358332      -0.92409103      -1.32259547       0.24358332      -0.92409103 
Ti       2.22801208       3.52899279      12.29797604       1.70625037       1.11745655       2.19722263      47.86700000       0.04967288       0.60605915      -0.69040880       0.04967288       0.60605915      -0.69040880 
Ti       3.51451165       6.17164190       0.46487582      -1.54512234       4.16149803       1.13052281      47.86700000      -0.64674563      -0.63245908      -0.71939994      -0.64674563      -0.63245908      -0.71939994 
Ti       4.67398530       5.29432567       2.84474847      -2.18004796       0.58481243       0.09034880      47.86700000      -0.73207347       0.18502649      -0.65341220      -0.73207347       0.18502649      -0.65341220 
Ti       2.69177282       4.63995918       4.97620080       0.76340515      -0.36735197       1.12468414      47.86700000      -0.01292859      -0.01673241      -0.53427154      -0.01292859      -0.01673241      -0.53427154 
Ti       4.28735798       5.80548689       7.14042047      -1.38235797       0.11354015      -3.80537704      47.86700000      -0.65526576      -0.10373231       0.72075286      -0.65526576      -0.10373231       0.72075286 
Ti       2.70861873       5.14666357       9.54559130      -0.21318775       1.14010734       0.56664949      47.86700000       0.79347053      -0.63099225      -0.16477092       0.79347053      -0.63099225      -0.16477092 
Ti       4.28625535       5.50903695      11.62347893      -2.14415593       0.14138432      -0.78617285      47.86700000      -0.24973799       0.93358866       0.33936328      -0.24973799       0.93358866       0.33936328 
Ti       1.71742412      -1.19736353       0.34421615      -0.16154213      -1.73402865      -0.46366656      47.86700000       0.07053031      -0.84025011      -0.08238082       0.07053031      -0.84025011      -0.08238082 
Ti       3.00726931      -1.99230727       2.60783387       1.98957583      -1.57637371      -2.31649128      47.86700000       0.77222194       0.34698999      -0.49101711       0.77222194       0.34698999      -0.49101711 
Ti       1.16212054      -2.87944260       5.19091969       2.35482978       1.65015099      -1.51808118      47.86700000      -0.35784842      -0.38351178      -0.81366401      -0.35784842      -0.38351178      -0.81366401 
Ti       2.84765892      -1.91539135       7.06001917       1.21413342      -3.31632615      -3.04632558      47.86700000      -0.27546973       0.77924113       0.95785340      -0.27546973       0.77924113       0.95785340 
Ti       1.53944310      -2.52238192       9.58072723      -0.05619326      -1.23122136       0.63040511      47.86700000       0.12700044      -0.97031905       0.04870465       0.12700044      -0.97031905       0.04870465 
Ti       2.90954828      -1.59366585      11.61927200      -0.71704035       2.29134176       0.25284693      47.86700000      -0.00692963      -0.19247090       0.25821882      -0.00692963      -0.19247090       0.25821882 
Ti       3.44771758       0.50857039       0.37528058       2.96980874      -1.10906013      -3.41243785      47.86700000      -1.34218147       1.42504554      -0.26292027      -1.34218147       1.42504554      -0.26292027 
Ti       4.75364024       0.54516238       2.42034494      -0.36551543       1.68136016       0.46511967      47.86700000      -0.58463423      -1.00304294       0.47183462      -0.58463423      -1.00304294       0.47183462 
Ti       3.02167022      -0.39393603       5.21687268       1.22903086       1.32027702      -0.19422209      47.86700000      -0.89100395      -0.14991128      -0.56010198      -0.89100395      -0.14991128      -0.56010198 
Ti       4.37581463       0.76323736       7.45279392      -5.06734794       2.72149818      -0.43345917      47.86700000      -0.36832913       0.63122207      -0.71945992      -0.36832913       0.63122207      -0.71945992 
Ti       2.95930255       0.03515536       9.68979709      -1.33212947      -1.42191649      -3.52620141      47.86700000       0.90120351      -0.95726104       0.02944213       0.90120351      -0.95726104       0.02944213 
Ti       4.54680300       1.16359426      11.79757623       2.71503694      -1.48429718       2.91351881      47.86700000       0.31119099       1.08332370       0.09789122       0.31119099       1.08332370       0.09789122 
Ti       4.61727536       3.59223576       0.18528066       1.99505727       1.36215766      -1.62427277      47.86700000       0.19345209       0.23251731       0.06800455       0.19345209       0.23251731       0.06800455 
Ti       6.03402221       2.99246492       2.50998260      -0.37101321       2.82109945       2.40444164      47.86700000      -0.39771767       0.12942333      -0.34907063      -0.39771767       0.12942333      -0.34907063 
Ti       4.05251042       2.01625682       4.44994490      -3.89235109      -1.72315101      -0.11963632      47.86700000      -0.18596366       1.28007547       1.54741164      -0.18596366       1.28007547       1.54741164 
Ti       5.78512324       3.17114617       7.38550812       0.50837839       3.36068021       1.38937700      47.86700000      -0.69066730       0.04110502      -0.58962008      -0.69066730       0.04110502      -0.58962008 
Ti       4.36823391       2.78239433       9.89623372       4.14742164      -0.35373063       0.73087641      47.86700000       0.97036636      -0.10416212       0.15962854       0.97036636      -0.10416212       0.15962854 
Ti       5.89928834       3.13577791      11.74249273      -0.33889238       0.21974422      -2.39216256      47.86700000      -0.54270709      -0.90725318      -0.07014380      -0.54270709      -0.90725318      -0.07014380 
Ti       3.82457406      -3.47844743       0.46787599      -1.37860306       1.10198002       2.86488451      47.86700000      -1.20754615      -0.16555704      -0.61122922      -1.20754615      -0.16555704      -0.61122922 
Ti       4.37249593      -4.76902737       2.26488941       0.60608299      -1.28670395      -2.71085868      47.86700000       0.87158547      -0.20672356       0.93755469       0.87158547      -0.20672356       0.93755469 
Ti       2.63286008      -5.61702112       4.59048897       0.29556878       1.45788549       2.44170030      47.86700000      -0.64310440      -0.17810772       0.64298663      -0.64310440      -0.17810772       0.64298663 
Ti       4.02229044      -4.49817142       7.02122607      -6.37675188       4.69624830      -0.27668764      47.86700000       0.71422195       0.12723579       0.15604794       0.71422195       0.12723579       0.15604794 
Ti       3.08496637      -5.40907248       9.47056172      -2.22350706      -0.81252715      -1.43942094      47.86700000       0.32424739       0.79766814       0.77829941       0.32424739       0.79766814       0.77829941 
Ti       4.38225679      -4.21805942      11.59808764       2.46271443       0.10831282       1.55945611      47.86700000       0.78433521      -0.23377731       0.96720196       0.78433521      -0.23377731       0.96720196 
Ti       5.09187750      -1.21384918      -0.21873260      -1.39901087      -1.65615450       1.38706258      47.86700000      -1.70835528      -4.40667214      -1.26619380      -1.70835528      -4.40667214      -1.26619380 
Ti       6.08651582      -2.44053887       2.39202420       5.08164533       0.09303815       3.97976648      47.86700000      -0.57128001       1.03842760       0.16655994      -0.57128001       1.03842760       0.16655994 
Ti       3.82570656      -3.10126353       4.74580179       0.93084603      -5.49930916      -3.06730938      47.86700000       1.40844783       0.49223036      -0.27501829       1.40844783       0.49223036      -0.27501829 
Ti       5.56645410      -1.85071069       7.13357831      -2.90751522      -2.74288551      -2.46483807      47.86700000       0.51271184       0.08468278      -0.28247452       0.51271184       0.08468278      -0.28247452 
Ti       4.49131599      -2.77715139       9.36789764      -0.11579999      -1.72399017      -0.41885928      47.86700000      -0.80498071       0.49965285      -0.06786975      -0.80498071       0.49965285      -0.06786975 
Ti       5.85456626      -1.20862959      11.60130089       3.43711408      -1.42204287       0.15126191      47.86700000      -0.12934311      -1.53890578       0.77414935      -0.12934311      -1.53890578       0.77414935 
Ti       6.10721201       0.72768740       0.14220109       1.02460072       0.94816019      -0.05176699      47.86700000       2.54473675       5.04996792       0.83657000       2.54473675       5.04996792       0.83657000 
Ti       7.58890117       0.21662166       2.43036964       4.11859368      -2.38856505      -2.04164419      47.86700000      -0.34122063       0.00504217      -0.22547452      -0.34122063       0.00504217      -0.22547452 
Ti       5.76004776      -0.55737329       4.76015390      -2.31352472       1.06834994       1.83661564      47.86700000      -0.49021568      -0.10764406       0.24712592      -0.49021568      -0.10764406       0.24712592 
Ti       7.31684182       0.75972042       7.29723161      -0.61475820       0.31249249       0.38150500      47.86700000      -0.59014589      -0.76242048      -0.98277052      -0.59014589      -0.76242048      -0.98277052 
Ti       6.21478754      -0.01187766       9.69336730      -1.25581582       2.70710862       1.62875824      47.86700000      -1.47616914       0.43507966      -0.15592031      -1.47616914       0.43507966      -0.15592031 
Ti       7.48550474       0.63655031      12.44132284      -3.79425464      -0.28361893       2.43605604      47.86700000      -0.02267310       0.26181170      -0.92157752      -0.02267310       0.26181170      -0.92157752 
