54
Lattice="4.425 -7.66432482349 0.0 4.425 7.66432482349 0.0 0.0 0.0 24.451989482400002" Properties=species:S:1:pos:R:3:momenta:R:3:masses:R:1:force:R:3:forces:R:3 energy=-301.724335999 config_type=HMD_iter7 pbc="T T T"
Ti      -0.91505921       0.77075267      -0.00841211       0.02747402       1.24955311       1.12174376      47.86700000      -2.14879769      -3.77875449       0.71652757      -2.14879769      -3.77875449       0.71652757 
Ti       0.24439537       1.70866601       2.31675783      -5.72706328      -1.70757032       0.43901190      47.86700000      -0.02240808      -0.57675772       0.15391741      -0.02240808      -0.57675772       0.15391741 
Ti      -0.00280869      -0.23063254       4.74708122       2.51049105       4.46952023      -4.45952842      47.86700000       1.00485969       0.09142232      -0.30997800       1.00485969       0.09142232      -0.30997800 
Ti       1.29225265       0.46524198       7.44055774       0.66355491      -0.19106596       1.18232310      47.86700000       0.72213036       0.04475467      -1.01765444       0.72213036       0.04475467      -1.01765444 
Ti       1.94664633      -0.88791708       9.71649898       2.84469078       3.93679358       2.99053004      47.86700000      -0.28145093       0.72613156       1.24097492      -0.28145093       0.72613156       1.24097492 
Ti       1.96212964       1.08086142      11.62915910       3.54760222       0.24051863      -2.90246558      47.86700000      -0.04170201      -0.44143157       0.47819520      -0.04170201      -0.44143157       0.47819520 
Ti       0.14323655       2.71527965      -0.36892482       0.12732335      -1.21769231       3.47155094      47.86700000       1.71906226       3.41191538      -0.35052875       1.71906226       3.41191538      -0.35052875 
Ti       1.73562924       4.07908276       2.28111835      -1.84024542      -1.23500655       0.13019784      47.86700000      -1.01442120      -0.29915279       0.57850128      -1.01442120      -0.29915279       0.57850128 
Ti       1.77711553       2.41422033       4.94504085       1.93012236      -0.57347810      -2.62147135      47.86700000      -0.43227975      -0.84903024      -0.49621731      -0.43227975      -0.84903024      -0.49621731 
Ti       3.15382027       2.78667986       7.46403422       1.32378174       0.79508758       0.49577425      47.86700000       0.61765758       0.78291279      -1.20352487       0.61765758       0.78291279      -1.20352487 
Ti       3.54860730       1.87901330       9.80381250       4.38339309       0.76268043      -0.35839184      47.86700000      -0.32105055      -0.03165082       0.58978293      -0.32105055      -0.03165082       0.58978293 
Ti       3.13459070       3.92207519      12.11793464      -0.46296905      -2.05547143       0.19469791      47.86700000       0.20022782       0.81857746      -0.18510896       0.20022782       0.81857746      -0.18510896 
Ti       1.74041786       5.92900803      -0.00571365      -0.35071866       0.37113836      -0.20089171      47.86700000      -1.83039207      -1.45756465      -0.20569552      -1.83039207      -1.45756465      -0.20569552 
Ti       3.38955327       6.27705025       2.55362847      -0.96491505       0.49160353       0.62654717      47.86700000      -1.46920173       1.92337470      -0.36123001      -1.46920173       1.92337470      -0.36123001 
Ti       3.24085024       4.72812283       5.01003301       0.88280659       1.00247252       2.11700931      47.86700000      -0.88906110       0.12723392       0.00752548      -0.88906110       0.12723392       0.00752548 
Ti       4.12207303       5.87867487       6.97788386       1.74259526      -3.07097024      -3.49299233      47.86700000       0.69691981      -0.89512270       0.87443524       0.69691981      -0.89512270       0.87443524 
Ti       4.92116748       4.61321924       9.78527780      -2.19167729       0.92135534      -1.37582237      47.86700000      -1.29837582      -0.58157049      -0.51322331      -1.29837582      -0.58157049      -0.51322331 
Ti       4.85930405       6.27222677      12.50837704       1.37562919      -1.59198983      -3.43302706      47.86700000       0.47179205      -0.19179963      -0.64417636       0.47179205      -0.19179963      -0.64417636 
Ti       0.20898610      -2.00435325      -0.40536099       0.70078612       1.83947655       1.36342959      47.86700000       0.73932790      -0.35082657       0.78200572       0.73932790      -0.35082657       0.78200572 
Ti       1.67069002      -1.40370840       2.02242767       2.45239238       1.81274543      -0.50876275      47.86700000       0.81767685       0.82901855      -0.84366321       0.81767685       0.82901855      -0.84366321 
Ti       1.51792757      -2.62609872       4.69243646      -0.76942621       0.28638617       2.30529178      47.86700000      -0.02678605       0.89055509       0.23950103      -0.02678605       0.89055509       0.23950103 
Ti       2.80719482      -1.82078294       7.40013377      -0.70566545       1.66695668       0.46406519      47.86700000      -0.30941927       0.21204434      -1.03956959      -0.30941927       0.21204434      -1.03956959 
Ti       3.08605928      -3.35763084       9.52320757       0.92069517      -1.92255272       0.16935821      47.86700000       0.88055695      -0.74426164       0.24723034       0.88055695      -0.74426164       0.24723034 
Ti       3.44699062      -1.45705014      12.38552388      -4.57692655       1.66321977      -2.56012907      47.86700000      -0.81193926      -0.15804680      -0.32990884      -0.81193926      -0.15804680      -0.32990884 
Ti       1.98091290      -0.13946321       0.08815347       0.79978218      -2.92929145       0.66138959      47.86700000      -1.26334277       0.82847543       0.98599649      -1.26334277       0.82847543       0.98599649 
Ti       2.96655979       1.41046238       2.51128535       3.05214975      -1.15133203       1.21163344      47.86700000       0.07016829      -0.60550461      -0.07784323       0.07016829      -0.60550461      -0.07784323 
Ti       3.01334293      -0.10045118       4.88378370      -1.45112788       1.69147839      -0.13913763      47.86700000       0.09348550      -0.01740031      -0.22235765       0.09348550      -0.01740031      -0.22235765 
Ti       4.39200830       0.71436301       7.11791881      -0.62666716      -2.63202405      -0.81453643      47.86700000       0.19793068       0.25144854       0.71202909       0.19793068       0.25144854       0.71202909 
Ti       4.69062802      -0.99665301      10.12951251      -2.37369891       0.54253516       2.38089327      47.86700000       0.31458040       0.54077570      -0.81356610       0.31458040       0.54077570      -0.81356610 
Ti       5.09083448       1.15381360      12.21028693      -1.16334652      -2.21120318      -2.25607269      47.86700000      -0.74845184      -0.26359368      -0.24533514      -0.74845184      -0.26359368      -0.24533514 
Ti       2.79702338       3.10476782       0.31506247      -2.89222090       0.47518191       1.80533561      47.86700000       0.33964899      -0.42434013      -0.24398437       0.33964899      -0.42434013      -0.24398437 
Ti       4.24766011       3.99800520       2.23632948      -0.24933907      -0.59123141      -0.59353623      47.86700000       0.73229306      -0.30600419       0.26368907       0.73229306      -0.30600419       0.26368907 
Ti       4.87043774       2.42147827       4.61583789       0.22077079       1.35362184       1.69965289      47.86700000      -0.74832443      -0.68074255       0.82434479      -0.74832443      -0.68074255       0.82434479 
Ti       6.41930195       3.43717681       6.74922894       0.56413137      -0.08084739      -3.86023888      47.86700000      -1.16936274      -0.65651677       1.21258280      -1.16936274      -0.65651677       1.21258280 
Ti       6.25480721       1.55962568       9.62746210      -0.26560453       1.71368825       1.73739346      47.86700000       0.34068602       0.89222184      -0.38194306       0.34068602       0.89222184      -0.38194306 
Ti       6.08849443       3.58332667      11.91649867      -0.49117599      -0.11170274       0.05181135      47.86700000       0.30616580       0.13375251      -0.39936365       0.30616580       0.13375251      -0.39936365 
Ti       1.50854420      -4.67780871       0.34116726      -0.51374287      -1.15413229       0.32313547      47.86700000       0.85025502       0.76923261      -0.04626510       0.85025502       0.76923261      -0.04626510 
Ti       2.75362981      -3.91732637       2.94563130      -1.52134025       3.01313308       1.19078473      47.86700000       1.16839545      -0.25158019      -1.36156163       1.16839545      -0.25158019      -1.36156163 
Ti       3.09111566      -5.59719785       4.59068616       2.68491032      -3.01521322      -2.20773960      47.86700000       0.48935547       0.62101983       0.49861984       0.48935547       0.62101983       0.49861984 
Ti       4.71333991      -4.44916942       7.19105953      -0.04620486       0.09950589       3.07736475      47.86700000       0.07086063      -0.21114585      -0.20027382       0.07086063      -0.21114585      -0.20027382 
Ti       4.90543092      -5.65388618       9.43749798      -0.74559420      -4.17063002      -2.25123074      47.86700000      -0.14813997      -0.17030211       0.93487691      -0.14813997      -0.17030211       0.93487691 
Ti       4.78374798      -3.70384090      11.55320765      -0.79214916      -3.83550557       2.56274763      47.86700000      -0.07224642      -0.18529119       0.16598445      -0.07224642      -0.18529119       0.16598445 
Ti       3.86641454      -2.04918507      -0.26553470       0.80620802      -1.11769021       1.32029286      47.86700000       2.28689480       0.93228795       0.72881563       2.28689480       0.93228795       0.72881563 
Ti       4.64150461      -1.27949310       2.56976486      -1.50242999       2.58869470      -1.22912930      47.86700000      -0.69145458      -0.25993385       0.52443631      -0.69145458      -0.25993385       0.52443631 
Ti       4.46895854      -2.78222038       5.19406072       1.56254329      -2.28620885       0.43705065      47.86700000      -0.47352399      -0.37581524      -1.13762545      -0.47352399      -0.37581524      -1.13762545 
Ti       5.63432683      -1.81325073       7.33031702      -5.04431160       0.80224019      -0.12104626      47.86700000       0.89107862       0.73974813       0.28853037       0.89107862       0.73974813       0.28853037 
Ti       6.52332100      -3.14419025       9.33331128      -0.14510889       1.00505584       0.29067313      47.86700000      -0.42588236      -0.52034583       0.70765414      -0.42588236      -0.52034583       0.70765414 
Ti       6.59386269      -1.63447820      11.99036565       3.27023798      -0.32041843       2.85053640      47.86700000       0.43160719      -1.19202357       0.49372713       0.43160719      -1.19202357       0.49372713 
Ti       4.76946108       0.04353284       0.13888316      -5.21379794       0.15617201       2.51758978      47.86700000      -1.29447868       0.01666414      -0.46298214      -1.29447868       0.01666414      -0.46298214 
Ti       5.79999234       1.35736160       2.61701556      -2.20164855      -0.44536306      -1.55455001      47.86700000       0.79522632      -1.01848244      -0.77954795       0.79522632      -1.01848244      -0.77954795 
Ti       5.96011917      -0.55011222       4.88938920       1.42618054       2.55594083       0.80106189      47.86700000       0.49744687       0.67315097      -0.07077066       0.49744687       0.67315097      -0.07077066 
Ti       7.62505939       0.65475106       7.06158911       0.62743906       0.20040961      -3.82930227      47.86700000      -1.27872462       0.73879020       0.26230589      -1.27872462       0.73879020       0.26230589 
Ti       7.78748097      -0.60815532       9.56355397       5.36306265       2.21085537      -1.62106848      47.86700000       1.00012571      -0.14638137      -0.54453280       1.00012571      -0.14638137      -0.54453280 
Ti       7.85490910       0.91919045      11.75392387      -0.98163793      -0.29942961       0.40019314      47.86700000       0.46480182       0.64586535      -0.02375809       0.46480182       0.64586535      -0.02375809 
