54
Lattice="4.425 -7.66432482349 0.0 4.425 7.66432482349 0.0 0.0 0.0 24.451989482400002" Properties=species:S:1:pos:R:3:momenta:R:3:masses:R:1:force:R:3:forces:R:3 energy=-302.047616062 config_type=HMD_iter2 pbc="T T T"
Ti       0.22683291      -0.27883827      -0.35431373       3.90448180       1.08993699       2.24418917      47.86700000       0.24937655       0.27463014      -0.09283856       0.24937655       0.27463014      -0.09283856 
Ti       1.30695866       0.59242887       2.08421375      -1.95055419       0.32592416      -0.41677345      47.86700000       0.10568273      -0.19718236      -0.13963138       0.10568273      -0.19718236      -0.13963138 
Ti      -0.29059362       0.23373286       4.61753343       5.03865875      -3.23571885      -2.24754206      47.86700000       0.32854734      -0.06294568      -0.13003314       0.32854734      -0.06294568      -0.13003314 
Ti       1.17537500       0.92443512       7.12530630       0.99502296       2.98463021      -1.41015420      47.86700000      -0.33268516       0.00101945      -1.15631369      -0.33268516       0.00101945      -1.15631369 
Ti      -0.36375183      -0.24817462       9.29299750       1.36225421      -0.24058591      -0.59090779      47.86700000       0.95824175      -0.07718798      -0.43536118       0.95824175      -0.07718798      -0.43536118 
Ti       1.39910586       0.48179316      11.49296203       4.38057935       2.15836690       0.92906015      47.86700000       0.01262809       0.09898933       0.04326677       0.01262809       0.09898933       0.04326677 
Ti       2.08578703       2.54542826       0.38019475      -2.38848017      -2.01328497       0.75745501      47.86700000      -0.52927239       0.40533794      -0.28993678      -0.52927239       0.40533794      -0.28993678 
Ti       2.94514076       3.26579832       2.62677949       0.67713742       2.52951466       5.42823416      47.86700000      -0.01771065      -0.32019191      -0.47703132      -0.01771065      -0.32019191      -0.47703132 
Ti       1.53540019       2.74485886       5.03192551      -1.20075884       3.15835548       0.94274779      47.86700000      -0.21921456      -0.45197306      -0.35183659      -0.21921456      -0.45197306      -0.35183659 
Ti       2.64846671       3.78243434       7.30875319      -1.64466980       1.28254373      -0.44973861      47.86700000       0.03954411      -0.34137347       0.10488401       0.03954411      -0.34137347       0.10488401 
Ti       1.59337117       2.19942807       9.47130680       0.19138256       0.73484752      -1.25178453      47.86700000      -0.25809850       0.33680301      -0.02688673      -0.25809850       0.33680301      -0.02688673 
Ti       2.70478401       3.21641565      12.55439876       2.08690394      -1.77384051      -0.26077139      47.86700000      -1.28815089      -0.19773564      -1.41201939      -1.28815089      -0.19773564      -1.41201939 
Ti       3.18982586       5.49799372       0.30252111       2.93977618      -3.55593892      -3.55133889      47.86700000       0.23840693      -0.23136994      -0.14670667       0.23840693      -0.23136994      -0.14670667 
Ti       4.68888867       5.52535092       2.84295774       3.60508999      -1.70918681      -0.92569283      47.86700000      -0.54508299       0.47040342      -0.87599775      -0.54508299       0.47040342      -0.87599775 
Ti       2.72154782       5.28730530       4.91035914      -1.82057714       1.25748367       1.46970952      47.86700000       0.91704159       0.59880949       0.59600010       0.91704159       0.59880949       0.59600010 
Ti       4.03825646       6.11450007       7.33738606      -0.12580262       1.18551852      -1.36750592      47.86700000      -0.02700389       0.37816697       0.75713243      -0.02700389       0.37816697       0.75713243 
Ti       2.41916513       4.81267077      10.08164159      -0.93994278       2.04611519      -0.05004727      47.86700000       1.16854439       0.20766408      -0.39030856       1.16854439       0.20766408      -0.39030856 
Ti       3.77153780       5.84696271      11.63231936       2.30137226      -3.15208047      -0.95357900      47.86700000       0.06826966       0.53546163       0.57060894       0.06826966       0.53546163       0.57060894 
Ti       2.07005066      -2.57942054       0.58187214      -0.37944994       0.45378522      -1.23538042      47.86700000       0.05654061      -0.04800424       0.20831128       0.05654061      -0.04800424       0.20831128 
Ti       2.73251249      -1.80946628       2.95378994       1.16197657       0.89360465       2.39255606      47.86700000       1.72515778      -0.42664300      -0.64713548       1.72515778      -0.42664300      -0.64713548 
Ti       1.39845261      -2.25314200       5.36956363      -2.67202699       0.79255276       0.90755023      47.86700000      -3.73580626      -2.62327431      -5.35304994      -3.73580626      -2.62327431      -5.35304994 
Ti       2.55854154      -1.49892523       7.05076746      -1.62487204      -1.59804056       1.13301525      47.86700000       3.91568502       2.04643960       4.72926672       3.91568502       2.04643960       4.72926672 
Ti       1.45202918      -2.64442852       9.68940509      -0.06325047      -0.53342571       0.16868615      47.86700000      -0.37840355       0.34909033       0.45160678      -0.37840355       0.34909033       0.45160678 
Ti       3.37393404      -1.51271303      11.68768312      -2.84106526      -3.21406390      -5.65405484      47.86700000      -0.29068160      -0.55264289      -0.99863716      -0.29068160      -0.55264289      -0.99863716 
Ti       3.36854531      -0.31237586       0.16746242      -0.62651211      -1.19227358      -1.87522432      47.86700000      -0.04724550       0.40228336       0.04243849      -0.04724550       0.40228336       0.04243849 
Ti       4.50181969       0.84675862       2.30687398      -0.15506423      -3.46234142       2.57485980      47.86700000       0.11928278      -0.60270754      -0.46375977       0.11928278      -0.60270754      -0.46375977 
Ti       2.73750144       0.23709921       4.38763794      -2.56020508       1.00524249       0.13877893      47.86700000      -0.14223870       0.24830089       1.52980272      -0.14223870       0.24830089       1.52980272 
Ti       4.10125307       1.08755008       6.96469983      -0.51476405       4.08738104      -2.56171275      47.86700000      -0.39974389      -0.58085418      -0.47866772      -0.39974389      -0.58085418      -0.47866772 
Ti       2.80361547      -0.21519529       9.05314704       0.04154109      -0.47314732       2.00498281      47.86700000       0.48750181      -0.02983400       1.48607738       0.48750181      -0.02983400       1.48607738 
Ti       4.47380112       1.25133944      11.17792580      -1.81971656       3.01228371       0.40549989      47.86700000       0.17117643      -1.04352968       0.48530176       0.17117643      -1.04352968       0.48530176 
Ti       4.88033966       3.01379993       0.54132330       1.54126488       0.52844907      -0.22090992      47.86700000       0.25396322      -0.62067868      -0.23586319       0.25396322      -0.62067868      -0.23586319 
Ti       6.20184385       3.00368313       2.77951990       0.87183430       1.77590872       1.29627593      47.86700000       0.19163872       0.35306379      -1.02483014       0.19163872       0.35306379      -1.02483014 
Ti       4.35789297       2.73953264       4.77886411      -0.94213749       0.28697783      -3.03982925      47.86700000       0.21620159       0.30000692       0.87299311       0.21620159       0.30000692       0.87299311 
Ti       5.69326614       3.51263637       7.44946992       0.31795803      -2.58521482       1.45329766      47.86700000       0.06215472      -0.41127425      -0.69654644       0.06215472      -0.41127425      -0.69654644 
Ti       4.50437133       2.43930037       9.22743705      -0.33428745      -1.55007292      -0.68583872      47.86700000       0.39816896       0.28714229       0.72322332       0.39816896       0.28714229       0.72322332 
Ti       5.91778347       3.63193852      11.99881206       0.74286264      -1.25248258      -3.25630495      47.86700000      -0.31319510      -0.23747043      -0.26555117      -0.31319510      -0.23747043      -0.26555117 
Ti       3.66091713      -5.17972298      -0.10512012      -1.23947243       2.90173811      -0.23690367      47.86700000      -0.30153015      -0.05006753       0.66733327      -0.30153015      -0.05006753       0.66733327 
Ti       4.58318794      -4.55386369       2.73652541      -0.51930223       2.61899138       0.06474344      47.86700000      -0.26472596       0.29881156      -1.20131889      -0.26472596       0.29881156      -1.20131889 
Ti       3.13043515      -4.81115552       4.89041400      -1.04549064       0.53375107       1.46958828      47.86700000      -0.80376995      -0.37356525       0.83595842      -0.80376995      -0.37356525       0.83595842 
Ti       4.19088347      -4.21153990       7.07071503      -2.97345355      -0.15749476      -4.41411474      47.86700000      -0.01252694      -0.51989111       0.92385469      -0.01252694      -0.51989111       0.92385469 
Ti       3.02448004      -5.28644262       9.86085277      -0.47087079      -1.01751161       0.97713286      47.86700000      -0.95056342      -0.70824798      -0.37803886      -0.95056342      -0.70824798      -0.37803886 
Ti       4.96219049      -4.44626181      11.66430208      -3.13108008       2.75661423       0.76664651      47.86700000       0.96207510       0.48540009       1.94742904       0.96207510       0.48540009       1.94742904 
Ti       5.11953353      -2.22557740      -0.08317315       1.21138253      -1.66843314       4.17220221      47.86700000      -0.37534630      -0.31148378       0.37894778      -0.37534630      -0.31148378       0.37894778 
Ti       5.89561535      -1.93498892       2.63650400       0.63048343      -0.92263138      -3.05299177      47.86700000      -0.62486070       0.63945893      -0.15316453      -0.62486070       0.63945893      -0.15316453 
Ti       4.48720135      -2.33230537       5.25224765       2.72976648      -1.11985427       2.26254413      47.86700000      -0.35026710       0.16659825      -1.23717666      -0.35026710       0.16659825      -1.23717666 
Ti       5.66274588      -1.35857279       7.48166227      -1.78591719      -0.95004619      -1.83919423      47.86700000       0.09773793       0.10441485      -0.39268240       0.09773793       0.10441485      -0.39268240 
Ti       4.17317662      -2.86699907       9.19923654      -0.04719096      -1.15831590       1.51914070      47.86700000       0.11511406       0.58843089       0.91859733       0.11511406       0.58843089       0.91859733 
Ti       5.96334902      -1.52243198      12.51769469      -0.65145746      -1.52962215       3.30869172      47.86700000       0.68403968       0.54254331      -0.21128734       0.68403968       0.54254331      -0.21128734 
Ti       6.17270341       0.54179948      -0.63797990       0.95720129       0.42037743       0.35403089      47.86700000      -0.11946930      -0.43696049       0.36561699      -0.11946930      -0.43696049       0.36561699 
Ti       7.49763111       0.32946619       1.76147306       1.65544629      -0.80716817      -1.01890563      47.86700000      -0.64307980       0.38228877       0.95227953      -0.64307980       0.38228877       0.95227953 
Ti       5.57271058       0.20687612       4.78838097      -0.21765641       1.13611924       1.23772492      47.86700000       1.12166915       0.03537280       0.05599556       1.12166915       0.03537280       0.05599556 
Ti       7.05619878       1.00468235       7.27535388       2.64114060      -3.73016608       2.91009865      47.86700000      -0.44866704       0.42228127      -0.39953986      -0.44866704       0.42228127      -0.39953986 
Ti       5.75502474      -0.23391461       9.92426646      -0.49904229      -1.20776590      -3.12593237      47.86700000      -1.22862597       0.98109842      -0.18289513      -1.22862597       0.98109842      -0.18289513 
Ti       7.29336278       0.39143134      12.03091015      -4.80044631       3.85369481       2.40369073      47.86700000      -0.01642444      -0.48322236       0.59812002      -0.01642444      -0.48322236       0.59812002 
