54
Lattice="4.425 -7.66432482349 0.0 4.425 7.66432482349 0.0 0.0 0.0 24.451989482400002" Properties=species:S:1:pos:R:3:momenta:R:3:masses:R:1:force:R:3:forces:R:3 energy=-302.570721084 config_type=HMD_iter5 pbc="T T T"
Ti       0.00698415       0.02130713      -0.10397487      -0.40930357       0.95826435       0.95818185      47.86700000      -0.12201801       0.59250280      -0.21059051      -0.12201801       0.59250280      -0.21059051 
Ti       1.10881081       1.05974828       2.36293372       6.93213534      -0.45167598       4.32529576      47.86700000       0.06193234       0.47804199      -0.18990235       0.06193234       0.47804199      -0.18990235 
Ti      -0.09666373       0.21500908       4.55680450       0.67311864      -0.33606917      -0.02630295      47.86700000      -0.30164626      -0.67457787       0.58600398      -0.30164626      -0.67457787       0.58600398 
Ti       1.29697297       1.43187539       7.05270523      -2.34182488       3.37605896      -2.33001243      47.86700000      -0.82994234       0.23098501       0.29587343      -0.82994234       0.23098501       0.29587343 
Ti      -0.01737683       0.14082285       9.47749922       1.56979172      -3.15093306       2.55340351      47.86700000      -0.13660860       1.72378115      -0.65632221      -0.13660860       1.72378115      -0.65632221 
Ti       1.95486778      -0.27124064      11.31713050       3.08371096      -1.85611892      -4.77737128      47.86700000      -0.26633824       0.11023636       0.84872995      -0.26633824       0.11023636       0.84872995 
Ti       1.44906805       2.51000366       0.45946527      -1.27232232       3.10035267       0.23754543      47.86700000      -0.00517036       0.19167655      -0.11619918      -0.00517036       0.19167655      -0.11619918 
Ti       2.72714106       3.18033135       2.36511862      -1.51215378      -3.64017845       1.13317768      47.86700000      -1.02748582       0.57775214       0.01251691      -1.02748582       0.57775214       0.01251691 
Ti       1.47922477       2.67390300       4.74263089      -0.28110849       2.88370915      -0.33197182      47.86700000       0.08504922       0.28658832       0.48708587       0.08504922       0.28658832       0.48708587 
Ti       2.89575979       3.97187558       7.06022261       2.96758371      -1.73888875       3.15212511      47.86700000      -0.33263283      -0.44709489       0.52510618      -0.33263283      -0.44709489       0.52510618 
Ti       1.48590381       3.21180026       9.57016613      -0.18462431       3.48098014      -1.02966180      47.86700000       0.02613117      -0.84753430      -0.36594655       0.02613117      -0.84753430      -0.36594655 
Ti       3.23994255       2.26443692      12.17276492      -0.80894625      -0.17638208      -4.29193988      47.86700000      -0.29145420      -0.80099511      -0.30055956      -0.29145420      -0.80099511      -0.30055956 
Ti       3.32739858       5.02543924       0.33769449      -2.04415121       0.03480269       2.50240632      47.86700000      -1.28368968      -2.59437868      -3.73970982      -1.28368968      -2.59437868      -3.73970982 
Ti       4.32003128       6.31431559       1.83824440      -2.17245806       3.14990899      -3.32541823      47.86700000       1.91071706       2.64963687       3.93940178       1.91071706       2.64963687       3.93940178 
Ti       2.91350853       5.18573376       4.92506383       0.34785047       0.46032242       0.82203273      47.86700000       0.89342634       0.49485836      -0.67869176       0.89342634       0.49485836      -0.67869176 
Ti       4.28904999       6.62132022       6.92353601      -1.72792721       1.06378869       0.11037239      47.86700000       0.23400891      -0.47909061       0.04786502       0.23400891      -0.47909061       0.04786502 
Ti       3.03095665       5.52674752       9.80334682      -1.40887143      -1.19283296      -1.25267967      47.86700000       0.50748773      -0.09964748      -0.13859804       0.50748773      -0.09964748      -0.13859804 
Ti       4.91369350       4.20032716      11.92337030       3.02596622       0.81617840       1.88480032      47.86700000       1.17110323       1.29891608      -0.13825599       1.17110323       1.29891608      -0.13825599 
Ti       1.17557773      -2.58263391      -0.05565909       3.14836435      -1.04132689       1.12444108      47.86700000       0.18142364       0.74095523       0.05039333       0.18142364       0.74095523       0.05039333 
Ti       2.85475980      -1.46495491       2.44959376       1.74271867       2.42554115      -0.16520860      47.86700000      -0.32458470       0.14303014      -0.56139663      -0.32458470       0.14303014      -0.56139663 
Ti       1.73623475      -2.49481533       4.75186476       1.07709611       2.14320487      -2.65942159      47.86700000      -0.54534786       0.54418383       0.19388308      -0.54534786       0.54418383       0.19388308 
Ti       2.73882510      -1.14924942       7.38663751       2.65430007      -3.22710890      -0.06995698      47.86700000       0.38053596      -0.26086934      -0.85357109       0.38053596      -0.26086934      -0.85357109 
Ti       1.58034343      -2.08078833       9.25113496      -2.85239266      -4.02320127       3.97419528      47.86700000      -0.55985312      -0.52768207       0.83621709      -0.55985312      -0.52768207       0.83621709 
Ti       2.77103976      -2.87937411      12.16342495      -3.95614651       2.01103513       0.67729094      47.86700000      -0.85150944      -1.28307372      -0.52545486      -0.85150944      -1.28307372      -0.52545486 
Ti       2.71637835       0.03784256       0.42219972      -3.77406141       0.68334378       1.47678662      47.86700000       0.26604504      -0.25942701       0.29218071       0.26604504      -0.25942701       0.29218071 
Ti       4.32669148       0.91771900       2.87492025       1.40951572       2.87505909       2.14747127      47.86700000      -0.74926412       0.18263500      -1.32665878      -0.74926412       0.18263500      -1.32665878 
Ti       2.74268153       0.40189425       5.00875814      -0.52835060       2.49659443      -0.81221247      47.86700000      -0.12661022      -1.44587038      -0.39221547      -0.12661022      -1.44587038      -0.39221547 
Ti       4.20643252       1.14084668       7.14844565       0.30090131      -1.14569431       0.65772958      47.86700000       0.83656539       0.23528401       0.02637396       0.83656539       0.23528401       0.02637396 
Ti       2.89663143       0.61856113       9.45479575       0.24062365      -1.59719498      -1.60497086      47.86700000       0.69534977      -0.07850580       0.21686247       0.69534977      -0.07850580       0.21686247 
Ti       4.58455597      -0.33597127      12.23541448       1.15218316       0.86514320      -1.84643476      47.86700000       1.47611872       1.27863788      -0.37128414       1.47611872       1.27863788      -0.37128414 
Ti       4.58502223       2.48045338       0.46618633       3.56916291      -0.55230820       1.64001283      47.86700000      -0.13614816      -0.24818339       0.44572586      -0.13614816      -0.24818339       0.44572586 
Ti       5.28101870       3.81422396       2.22850346      -1.69277079       1.82008913       2.45880732      47.86700000       1.40233150      -0.93061487      -0.01670419       1.40233150      -0.93061487      -0.01670419 
Ti       4.55461593       2.80260048       4.91259454       2.59572906       1.33747903      -4.80613983      47.86700000      -0.05290825       0.06075932      -0.09052793      -0.05290825       0.06075932      -0.09052793 
Ti       5.71061066       3.87745774       7.24190475       0.25550110      -3.41782918       4.94814611      47.86700000       0.44090202       0.22098204      -1.01112228       0.44090202       0.22098204      -1.01112228 
Ti       4.61942331       2.77518709       9.38965227      -2.41812626      -2.77052019      -1.79535876      47.86700000      -0.85136378       0.56494602       0.48824461      -0.85136378       0.56494602       0.48824461 
Ti       5.98726403       1.57374504      12.29798773       1.06798008      -1.32829072       7.87000966      47.86700000      -0.57444052      -0.58666548      -0.21775276      -0.57444052      -0.58666548      -0.21775276 
Ti       2.92248454      -4.98534642       0.29316547       0.71173303      -2.33247339       0.13566390      47.86700000       0.29999886       0.20422571       0.46814229       0.29999886       0.20422571       0.46814229 
Ti       4.13378336      -3.78042190       2.51263720      -2.90428250       1.91425264       0.12220667      47.86700000       0.00127233      -1.35169550      -0.45532623       0.00127233      -1.35169550      -0.45532623 
Ti       3.02709467      -5.10401332       4.88848185      -1.56303681       2.86403727       1.00651986      47.86700000      -0.35236605       0.52106245      -0.32918016      -0.35236605       0.52106245      -0.32918016 
Ti       4.24785433      -3.47210451       7.03938717      -2.42641557       0.67810809       2.71716541      47.86700000       0.16759856      -1.12323629       0.80504895       0.16759856      -1.12323629       0.80504895 
Ti       2.81706690      -4.72109763       9.70929554       0.76397141       0.08717228      -3.33304765      47.86700000       0.44460690       0.06980750      -0.24127635       0.44460690       0.06980750      -0.24127635 
Ti       4.54587689      -5.27029951      11.41416890       0.08109200      -2.96239403      -0.10252606      47.86700000       0.58495118      -0.05164995       0.22375862       0.58495118      -0.05164995       0.22375862 
Ti       4.90437490      -2.35152482       0.27941271      -2.79086063      -1.01756191       0.03079839      47.86700000      -0.57321197       0.85997072       0.40814314      -0.57321197       0.85997072       0.40814314 
Ti       5.84686234      -1.64370637       2.47224175       1.49212727       0.83689929      -2.32512156      47.86700000       0.40182050       0.01946009      -0.22439107       0.40182050       0.01946009      -0.22439107 
Ti       4.60033805      -2.55833140       4.84775840      -0.23353131       4.42700972       0.71656935      47.86700000      -1.01816671       0.89375758       0.76834121      -1.01816671       0.89375758       0.76834121 
Ti       6.04270963      -1.27566179       7.47050493      -2.54290752       1.26739692      -0.97426195      47.86700000      -1.04477288       0.26874066      -0.26776384      -1.04477288       0.26874066      -0.26776384 
Ti       4.30270553      -2.29043102       9.83791360       2.15371868      -1.94732620       1.68848045      47.86700000       0.30979330       1.12331305       0.25449046       0.30979330       1.12331305       0.25449046 
Ti       6.23539303      -3.02384928      11.89332437       3.58175733       0.93704223      -0.63054043      47.86700000      -0.13414392       0.35874502      -0.04346996      -0.13414392       0.35874502      -0.04346996 
Ti       5.96250468      -0.23654486       0.46103611      -1.12186835      -3.39849756       0.39027221      47.86700000      -0.95362310      -1.09990151      -1.00786528      -0.95362310      -1.09990151      -1.00786528 
Ti       6.91090533       1.36076771       2.19681604      -1.11519610      -0.00398075      -3.79898234      47.86700000       1.00435261       0.13033608       0.45705375       1.00435261       0.13033608       0.45705375 
Ti       5.73688731       0.07974528       4.78128930      -1.84864376      -5.48647881      -0.64100607      47.86700000       1.03138115       0.12318191       1.15355188       1.03138115       0.12318191       1.15355188 
Ti       7.17927256       1.51226307       7.07104236      -4.15528871       2.46288425      -0.18107230      47.86700000       0.08154984      -0.64119762       0.44368159       0.08154984      -0.64119762       0.44368159 
Ti       5.93327025       0.37287253       9.70232975       0.93664411      -0.81086859      -4.88511987      47.86700000       0.14803640      -0.44779097       0.13398762       0.14803640      -0.44779097       0.13398762 
Ti       8.38223523      -0.35584162      11.88587535       2.55229390      -1.85052375      -3.46516789      47.86700000      -1.59918853      -0.89930704       0.06207322      -1.59918853      -0.89930704       0.06207322 
