54
Lattice="4.425 -7.66432482349 0.0 4.425 7.66432482349 0.0 0.0 0.0 14.4519894824" Properties=species:S:1:pos:R:3:mass:R:1:travel:I:3:damp_mask:I:1:thermostat_region:I:1:avg_ke:R:1:velo:R:3:acc:R:3:avgpos:R:3:oldpos:R:3:force:R:3 energy=-327.7235920869364 virial="-5.063394586407327 -0.000858367674484084 -0.000502100737706859 -0.000858368137215503 -5.236429347145304 9.9485606426573e-05 0.000843293877105415 0.001444883166797185 -13.20841463005641" time=0.0 orig_lattice_inv="0.11299435028248586 0.11299435028248586 -0.0 -0.0652373185525195 0.0652373185525195 -0.0 0.0 -0.0 0.06919462550244901" cutoff=0.0 nneightol=1.2 config_type=hcp_1000K pbc="T T T"
Ti       0.00000000       0.00000000       0.00000000    4961.06491543        0        0        0        1        1       0.00000000       0.00000000       0.00000000       0.00000000       0.00000000       0.00000125      -0.00000000       0.00000000       0.00000000       0.00000000       0.00000000       0.00000000       0.00000000       0.00000073       0.00621219      -0.00000092
Ti       1.47500000       0.85159165       2.40866491    4961.06491543        0        0        0        1        1       0.00000000       0.00000000       0.00000000       0.00000000      -0.00000000      -0.00000125       0.00000000       1.47500000       0.85159165       2.40866491       1.47500000       0.85159165       2.40866491      -0.00000073      -0.00621221       0.00000094
Ti       0.00000000       0.00000000       4.81732983    4961.06491543        0        0        0        1        1       0.00000000       0.00000000       0.00000000       0.00000000       0.00000000       0.00000125      -0.00000000       0.00000000       0.00000000       4.81732983       0.00000000       0.00000000       4.81732983       0.00000073       0.00621219      -0.00000094
Ti       1.47500000       0.85159165       7.22599474    4961.06491543        0        0        0        1        1       0.00000000       0.00000000       0.00000000       0.00000000      -0.00000000      -0.00000125       0.00000000       1.47500000       0.85159165       7.22599474       1.47500000       0.85159165       7.22599474      -0.00000073      -0.00621221       0.00000091
Ti       0.00000000       0.00000000       9.63465965    4961.06491543        0        0        0        1        1       0.00000000       0.00000000       0.00000000       0.00000000       0.00000000       0.00000125      -0.00000000       0.00000000       0.00000000       9.63465965       0.00000000       0.00000000       9.63465965       0.00000073       0.00621219      -0.00000088
Ti       1.47500000       0.85159165      12.04332457    4961.06491543        0        0        0        1        1       0.00000000       0.00000000       0.00000000       0.00000000      -0.00000000      -0.00000125       0.00000000       1.47500000       0.85159165      12.04332457       1.47500000       0.85159165      12.04332457      -0.00000073      -0.00621221       0.00000089
Ti       1.47500000       2.55477494       0.00000000    4961.06491543        0        0        0        1        1       0.00000000       0.00000000       0.00000000       0.00000000       0.00000000       0.00000125      -0.00000000       1.47500000       2.55477494       0.00000000       1.47500000       2.55477494       0.00000000       0.00000073       0.00621220      -0.00000092
Ti       2.95000000       3.40636659       2.40866491    4961.06491543        0        0        0        1        1       0.00000000       0.00000000       0.00000000       0.00000000      -0.00000000      -0.00000125       0.00000000       2.95000000       3.40636659       2.40866491       2.95000000       3.40636659       2.40866491      -0.00000073      -0.00621219       0.00000094
Ti       1.47500000       2.55477494       4.81732983    4961.06491543        0        0        0        1        1       0.00000000       0.00000000       0.00000000       0.00000000       0.00000000       0.00000125      -0.00000000       1.47500000       2.55477494       4.81732983       1.47500000       2.55477494       4.81732983       0.00000073       0.00621220      -0.00000094
Ti       2.95000000       3.40636659       7.22599474    4961.06491543        0        0        0        1        1       0.00000000       0.00000000       0.00000000       0.00000000      -0.00000000      -0.00000125       0.00000000       2.95000000       3.40636659       7.22599474       2.95000000       3.40636659       7.22599474      -0.00000073      -0.00621219       0.00000091
Ti       1.47500000       2.55477494       9.63465965    4961.06491543        0        0        0        1        1       0.00000000       0.00000000       0.00000000       0.00000000       0.00000000       0.00000125      -0.00000000       1.47500000       2.55477494       9.63465965       1.47500000       2.55477494       9.63465965       0.00000073       0.00621220      -0.00000088
Ti       2.95000000       3.40636659      12.04332457    4961.06491543        0        0        0        1        1       0.00000000       0.00000000       0.00000000       0.00000000      -0.00000000      -0.00000125       0.00000000       2.95000000       3.40636659      12.04332457       2.95000000       3.40636659      12.04332457      -0.00000073      -0.00621219       0.00000089
Ti       2.95000000       5.10954988       0.00000000    4961.06491543        0        0        0        1        1       0.00000000       0.00000000       0.00000000       0.00000000       0.00000000       0.00000125      -0.00000000       2.95000000       5.10954988       0.00000000       2.95000000       5.10954988       0.00000000       0.00000073       0.00621221      -0.00000092
Ti       4.42500000       5.96114153       2.40866491    4961.06491543        0        0        0        1        1       0.00000000       0.00000000       0.00000000       0.00000000      -0.00000000      -0.00000125       0.00000000       4.42500000       5.96114153       2.40866491       4.42500000       5.96114153       2.40866491      -0.00000073      -0.00621218       0.00000094
Ti       2.95000000       5.10954988       4.81732983    4961.06491543        0        0        0        1        1       0.00000000       0.00000000       0.00000000       0.00000000       0.00000000       0.00000125      -0.00000000       2.95000000       5.10954988       4.81732983       2.95000000       5.10954988       4.81732983       0.00000073       0.00621221      -0.00000094
Ti       4.42500000       5.96114153       7.22599474    4961.06491543        0        0        0        1        1       0.00000000       0.00000000       0.00000000       0.00000000      -0.00000000      -0.00000125       0.00000000       4.42500000       5.96114153       7.22599474       4.42500000       5.96114153       7.22599474      -0.00000073      -0.00621218       0.00000091
Ti       2.95000000       5.10954988       9.63465965    4961.06491543        0        0        0        1        1       0.00000000       0.00000000       0.00000000       0.00000000       0.00000000       0.00000125      -0.00000000       2.95000000       5.10954988       9.63465965       2.95000000       5.10954988       9.63465965       0.00000073       0.00621221      -0.00000088
Ti       4.42500000       5.96114153      12.04332457    4961.06491543        0        0        0        1        1       0.00000000       0.00000000       0.00000000       0.00000000      -0.00000000      -0.00000125       0.00000000       4.42500000       5.96114153      12.04332457       4.42500000       5.96114153      12.04332457      -0.00000073      -0.00621218       0.00000089
Ti       1.47500000      -2.55477494       0.00000000    4961.06491543        0        0        0        1        1       0.00000000       0.00000000       0.00000000       0.00000000       0.00000000       0.00000125      -0.00000000       1.47500000      -2.55477494       0.00000000       1.47500000      -2.55477494       0.00000000       0.00000073       0.00621219      -0.00000092
Ti       2.95000000      -1.70318329       2.40866491    4961.06491543        0        0        0        1        1       0.00000000       0.00000000       0.00000000       0.00000000      -0.00000000      -0.00000125       0.00000000       2.95000000      -1.70318329       2.40866491       2.95000000      -1.70318329       2.40866491      -0.00000073      -0.00621221       0.00000094
Ti       1.47500000      -2.55477494       4.81732983    4961.06491543        0        0        0        1        1       0.00000000       0.00000000       0.00000000       0.00000000       0.00000000       0.00000125      -0.00000000       1.47500000      -2.55477494       4.81732983       1.47500000      -2.55477494       4.81732983       0.00000073       0.00621219      -0.00000094
Ti       2.95000000      -1.70318329       7.22599474    4961.06491543        0        0        0        1        1       0.00000000       0.00000000       0.00000000       0.00000000      -0.00000000      -0.00000125       0.00000000       2.95000000      -1.70318329       7.22599474       2.95000000      -1.70318329       7.22599474      -0.00000073      -0.00621221       0.00000091
Ti       1.47500000      -2.55477494       9.63465965    4961.06491543        0        0        0        1        1       0.00000000       0.00000000       0.00000000       0.00000000       0.00000000       0.00000125      -0.00000000       1.47500000      -2.55477494       9.63465965       1.47500000      -2.55477494       9.63465965       0.00000073       0.00621219      -0.00000088
Ti       2.95000000      -1.70318329      12.04332457    4961.06491543        0        0        0        1        1       0.00000000       0.00000000       0.00000000       0.00000000      -0.00000000      -0.00000125       0.00000000       2.95000000      -1.70318329      12.04332457       2.95000000      -1.70318329      12.04332457      -0.00000073      -0.00621221       0.00000089
Ti       2.95000000       0.00000000       0.00000000    4961.06491543        0        0        0        1        1       0.00000000       0.00000000       0.00000000       0.00000000       0.00000000       0.00000125      -0.00000000       2.95000000       0.00000000       0.00000000       2.95000000       0.00000000       0.00000000       0.00000073       0.00621220      -0.00000092
Ti       4.42500000       0.85159165       2.40866491    4961.06491543        0        0        0        1        1       0.00000000       0.00000000       0.00000000       0.00000000      -0.00000000      -0.00000125       0.00000000       4.42500000       0.85159165       2.40866491       4.42500000       0.85159165       2.40866491      -0.00000073      -0.00621219       0.00000094
Ti       2.95000000       0.00000000       4.81732983    4961.06491543        0        0        0        1        1       0.00000000       0.00000000       0.00000000       0.00000000       0.00000000       0.00000125      -0.00000000       2.95000000       0.00000000       4.81732983       2.95000000       0.00000000       4.81732983       0.00000073       0.00621220      -0.00000094
Ti       4.42500000       0.85159165       7.22599474    4961.06491543        0        0        0        1        1       0.00000000       0.00000000       0.00000000       0.00000000      -0.00000000      -0.00000125       0.00000000       4.42500000       0.85159165       7.22599474       4.42500000       0.85159165       7.22599474      -0.00000073      -0.00621219       0.00000091
Ti       2.95000000       0.00000000       9.63465965    4961.06491543        0        0        0        1        1       0.00000000       0.00000000       0.00000000       0.00000000       0.00000000       0.00000125      -0.00000000       2.95000000       0.00000000       9.63465965       2.95000000       0.00000000       9.63465965       0.00000073       0.00621220      -0.00000088
Ti       4.42500000       0.85159165      12.04332457    4961.06491543        0        0        0        1        1       0.00000000       0.00000000       0.00000000       0.00000000      -0.00000000      -0.00000125       0.00000000       4.42500000       0.85159165      12.04332457       4.42500000       0.85159165      12.04332457      -0.00000073      -0.00621219       0.00000089
Ti       4.42500000       2.55477494       0.00000000    4961.06491543        0        0        0        1        1       0.00000000       0.00000000       0.00000000       0.00000000       0.00000000       0.00000125      -0.00000000       4.42500000       2.55477494       0.00000000       4.42500000       2.55477494       0.00000000       0.00000073       0.00621220      -0.00000092
Ti       5.90000000       3.40636659       2.40866491    4961.06491543        0        0        0        1        1       0.00000000       0.00000000       0.00000000       0.00000000      -0.00000000      -0.00000125       0.00000000       5.90000000       3.40636659       2.40866491       5.90000000       3.40636659       2.40866491      -0.00000073      -0.00621219       0.00000094
Ti       4.42500000       2.55477494       4.81732983    4961.06491543        0        0        0        1        1       0.00000000       0.00000000       0.00000000       0.00000000       0.00000000       0.00000125      -0.00000000       4.42500000       2.55477494       4.81732983       4.42500000       2.55477494       4.81732983       0.00000073       0.00621220      -0.00000094
Ti       5.90000000       3.40636659       7.22599474    4961.06491543        0        0        0        1        1       0.00000000       0.00000000       0.00000000       0.00000000      -0.00000000      -0.00000125       0.00000000       5.90000000       3.40636659       7.22599474       5.90000000       3.40636659       7.22599474      -0.00000073      -0.00621219       0.00000091
Ti       4.42500000       2.55477494       9.63465965    4961.06491543        0        0        0        1        1       0.00000000       0.00000000       0.00000000       0.00000000       0.00000000       0.00000125      -0.00000000       4.42500000       2.55477494       9.63465965       4.42500000       2.55477494       9.63465965       0.00000073       0.00621220      -0.00000088
Ti       5.90000000       3.40636659      12.04332457    4961.06491543        0        0        0        1        1       0.00000000       0.00000000       0.00000000       0.00000000      -0.00000000      -0.00000125       0.00000000       5.90000000       3.40636659      12.04332457       5.90000000       3.40636659      12.04332457      -0.00000073      -0.00621219       0.00000089
Ti       2.95000000      -5.10954988       0.00000000    4961.06491543        0        0        0        1        1       0.00000000       0.00000000       0.00000000       0.00000000       0.00000000       0.00000125      -0.00000000       2.95000000      -5.10954988       0.00000000       2.95000000      -5.10954988       0.00000000       0.00000073       0.00621218      -0.00000092
Ti       4.42500000      -4.25795824       2.40866491    4961.06491543        0        0        0        1        1       0.00000000       0.00000000       0.00000000       0.00000000      -0.00000000      -0.00000125       0.00000000       4.42500000      -4.25795824       2.40866491       4.42500000      -4.25795824       2.40866491      -0.00000073      -0.00621213       0.00000094
Ti       2.95000000      -5.10954988       4.81732983    4961.06491543        0        0        0        1        1       0.00000000       0.00000000       0.00000000       0.00000000       0.00000000       0.00000125      -0.00000000       2.95000000      -5.10954988       4.81732983       2.95000000      -5.10954988       4.81732983       0.00000073       0.00621218      -0.00000094
Ti       4.42500000      -4.25795824       7.22599474    4961.06491543        0        0        0        1        1       0.00000000       0.00000000       0.00000000       0.00000000      -0.00000000      -0.00000125       0.00000000       4.42500000      -4.25795824       7.22599474       4.42500000      -4.25795824       7.22599474      -0.00000073      -0.00621214       0.00000091
Ti       2.95000000      -5.10954988       9.63465965    4961.06491543        0        0        0        1        1       0.00000000       0.00000000       0.00000000       0.00000000       0.00000000       0.00000125      -0.00000000       2.95000000      -5.10954988       9.63465965       2.95000000      -5.10954988       9.63465965       0.00000073       0.00621218      -0.00000088
Ti       4.42500000      -4.25795824      12.04332457    4961.06491543        0        0        0        1        1       0.00000000       0.00000000       0.00000000       0.00000000      -0.00000000      -0.00000125       0.00000000       4.42500000      -4.25795824      12.04332457       4.42500000      -4.25795824      12.04332457      -0.00000073      -0.00621213       0.00000089
Ti       4.42500000      -2.55477494       0.00000000    4961.06491543        0        0        0        1        1       0.00000000       0.00000000       0.00000000       0.00000000       0.00000000       0.00000125      -0.00000000       4.42500000      -2.55477494       0.00000000       4.42500000      -2.55477494       0.00000000       0.00000073       0.00621218      -0.00000092
Ti       5.90000000      -1.70318329       2.40866491    4961.06491543        0        0        0        1        1       0.00000000       0.00000000       0.00000000       0.00000000      -0.00000000      -0.00000125       0.00000000       5.90000000      -1.70318329       2.40866491       5.90000000      -1.70318329       2.40866491      -0.00000073      -0.00621221       0.00000094
Ti       4.42500000      -2.55477494       4.81732983    4961.06491543        0        0        0        1        1       0.00000000       0.00000000       0.00000000       0.00000000       0.00000000       0.00000125      -0.00000000       4.42500000      -2.55477494       4.81732983       4.42500000      -2.55477494       4.81732983       0.00000073       0.00621218      -0.00000094
Ti       5.90000000      -1.70318329       7.22599474    4961.06491543        0        0        0        1        1       0.00000000       0.00000000       0.00000000       0.00000000      -0.00000000      -0.00000125       0.00000000       5.90000000      -1.70318329       7.22599474       5.90000000      -1.70318329       7.22599474      -0.00000073      -0.00621221       0.00000091
Ti       4.42500000      -2.55477494       9.63465965    4961.06491543        0        0        0        1        1       0.00000000       0.00000000       0.00000000       0.00000000       0.00000000       0.00000125      -0.00000000       4.42500000      -2.55477494       9.63465965       4.42500000      -2.55477494       9.63465965       0.00000073       0.00621218      -0.00000088
Ti       5.90000000      -1.70318329      12.04332457    4961.06491543        0        0        0        1        1       0.00000000       0.00000000       0.00000000       0.00000000      -0.00000000      -0.00000125       0.00000000       5.90000000      -1.70318329      12.04332457       5.90000000      -1.70318329      12.04332457      -0.00000073      -0.00621221       0.00000089
Ti       5.90000000       0.00000000       0.00000000    4961.06491543        0        0        0        1        1       0.00000000       0.00000000       0.00000000       0.00000000       0.00000000       0.00000125      -0.00000000       5.90000000       0.00000000       0.00000000       5.90000000       0.00000000       0.00000000       0.00000074       0.00621220      -0.00000092
Ti       7.37500000       0.85159165       2.40866491    4961.06491543        0        0        0        1        1       0.00000000       0.00000000       0.00000000       0.00000000      -0.00000000      -0.00000125       0.00000000       7.37500000       0.85159165       2.40866491       7.37500000       0.85159165       2.40866491      -0.00000073      -0.00621220       0.00000094
Ti       5.90000000       0.00000000       4.81732983    4961.06491543        0        0        0        1        1       0.00000000       0.00000000       0.00000000       0.00000000       0.00000000       0.00000125      -0.00000000       5.90000000       0.00000000       4.81732983       5.90000000       0.00000000       4.81732983       0.00000074       0.00621220      -0.00000094
Ti       7.37500000       0.85159165       7.22599474    4961.06491543        0        0        0        1        1       0.00000000       0.00000000       0.00000000       0.00000000      -0.00000000      -0.00000125       0.00000000       7.37500000       0.85159165       7.22599474       7.37500000       0.85159165       7.22599474      -0.00000073      -0.00621220       0.00000091
Ti       5.90000000       0.00000000       9.63465965    4961.06491543        0        0        0        1        1       0.00000000       0.00000000       0.00000000       0.00000000       0.00000000       0.00000125      -0.00000000       5.90000000       0.00000000       9.63465965       5.90000000       0.00000000       9.63465965       0.00000074       0.00621220      -0.00000088
Ti       7.37500000       0.85159165      12.04332457    4961.06491543        0        0        0        1        1       0.00000000       0.00000000       0.00000000       0.00000000      -0.00000000      -0.00000125       0.00000000       7.37500000       0.85159165      12.04332457       7.37500000       0.85159165      12.04332457      -0.00000073      -0.00621220       0.00000089
