54
Lattice="4.425 -7.66432482349 0.0 4.425 7.66432482349 0.0 0.0 0.0 24.451989482400002" Properties=species:S:1:pos:R:3:momenta:R:3:masses:R:1:force:R:3:forces:R:3 energy=-300.928618448 config_type=HMD_iter1 pbc="T T T"
Ti      -0.29525509      -0.30679458       0.19072523      -1.03434567      -1.68624684       2.95525164      47.86700000       0.44016435       0.79047799      -0.12508563       0.44016435       0.79047799      -0.12508563 
Ti       1.63386242       1.13352452       2.54252641       2.15210893       3.10052895       1.93128907      47.86700000      -0.20827631      -0.34453587      -0.90772171      -0.20827631      -0.34453587      -0.90772171 
Ti       0.20296102       0.11206922       4.66671501       2.31551961       0.26041230       0.20716205      47.86700000      -0.12219322      -0.86546602       1.13863010      -0.12219322      -0.86546602       1.13863010 
Ti       1.34940494       0.74926304       6.91543456      -0.16690001      -1.69768737      -2.81666113      47.86700000       0.73955781      -0.38364608       1.24339782       0.73955781      -0.38364608       1.24339782 
Ti       0.05586658       0.03134673       9.52741552      -0.40902668      -0.27971728      -2.19509831      47.86700000      -0.55527203      -0.28671623       0.51712528      -0.55527203      -0.28671623       0.51712528 
Ti       1.36005018       0.82228823      11.66307992      -0.05760161      -1.22662084      -4.73183006      47.86700000       0.44858714       0.07314300       0.10788412       0.44858714       0.07314300       0.10788412 
Ti       1.38923419       2.75352612      -0.07580984      -0.74646634      -0.00970533      -0.16688913      47.86700000      -0.30136492      -0.39080323       0.72631916      -0.30136492      -0.39080323       0.72631916 
Ti       2.96269915       3.39039711       2.70667962       0.51071234       0.53436303       5.44476398      47.86700000       0.16672898       1.00798829       0.20053749       0.16672898       1.00798829       0.20053749 
Ti       1.12349653       2.51572199       5.12762737      -1.96680039      -0.40145603       2.20226573      47.86700000       1.55684017       0.21517976      -1.16389907       1.55684017       0.21517976      -1.16389907 
Ti       2.94110990       3.44142235       7.08731747      -1.13377396       1.11661135      -2.48689556      47.86700000      -0.61671196       0.58547867      -0.29788291      -0.61671196       0.58547867      -0.29788291 
Ti       1.58550178       2.53531225       9.43450197       0.48781451       0.49519896      -4.11152860      47.86700000      -0.35618920       0.42595806       0.16796642      -0.35618920       0.42595806       0.16796642 
Ti       2.81759043       3.29526835      11.85026589       0.63875516      -0.01963163      -2.75531568      47.86700000       0.50655513       0.12142670      -0.40981283       0.50655513       0.12142670      -0.40981283 
Ti       2.93042194       5.13550899       0.44402398      -1.63008994       0.64932368       6.05287185      47.86700000       0.16239806       0.00537701      -0.03395700       0.16239806       0.00537701      -0.03395700 
Ti       4.60862804       6.31026633       2.66245285       2.19461755       2.28618546       2.35634451      47.86700000      -0.46497126      -1.55811562      -1.20204513      -0.46497126      -1.55811562      -1.20204513 
Ti       2.86490411       5.24178941       4.71487224       0.15919630       0.57512696       1.10814598      47.86700000       0.61737342      -0.78380261       1.29256463       0.61737342      -0.78380261       1.29256463 
Ti       4.53277709       5.85396102       7.19905151       1.11378590      -1.40039020      -2.05565946      47.86700000      -0.23231953       0.13163945      -0.80044513      -0.23231953       0.13163945      -0.80044513 
Ti       3.06271106       5.04550356       9.59208580       0.68497805      -0.09881642      -2.11664775      47.86700000      -0.49398796       0.36979399      -0.02233027      -0.49398796       0.36979399      -0.02233027 
Ti       4.39590548       5.96328789      12.02026472      -0.98967808      -0.33420705      -0.78998197      47.86700000      -0.12148382      -0.09648105      -0.38413251      -0.12148382      -0.09648105      -0.38413251 
Ti       1.37619800      -2.78186674      -0.16316703       0.51025558      -1.18334709      -2.26634687      47.86700000       0.34140195       0.46913808       0.44317765       0.34140195       0.46913808       0.44317765 
Ti       2.88374857      -1.59420747       2.51030224       0.34731921       1.05147287       1.50378198      47.86700000       1.09492611      -0.27423596      -1.05819473       1.09492611      -0.27423596      -1.05819473 
Ti       1.60971016      -2.63016878       4.50471542       0.14716727      -0.94513673      -1.35901084      47.86700000      -1.00854365      -0.00873373       1.18244418      -1.00854365      -0.00873373       1.18244418 
Ti       3.09015494      -1.94551389       6.76790140      -0.17514750      -3.06295010      -3.77532374      47.86700000      -1.22345796      -0.19269188       1.61047796      -1.22345796      -0.19269188       1.61047796 
Ti       1.57439417      -2.53213190       9.43964632       0.90720867       0.14448011      -3.40472272      47.86700000      -0.07674621      -0.18013418       0.15517726      -0.07674621      -0.18013418       0.15517726 
Ti       3.01750412      -1.69544856      11.81075914      -0.95297589       0.15576107      -3.74800037      47.86700000      -0.21905254       0.24857289      -0.29005706      -0.21905254       0.24857289      -0.29005706 
Ti       2.68247170       0.02525970       0.21251809      -2.85412751       1.29300609       2.98047387      47.86700000       0.20381113      -0.16665901       0.11811988       0.20381113      -0.16665901       0.11811988 
Ti       4.47860293       0.80567023       2.79155602       0.88497884      -0.95220656       4.87572869      47.86700000       0.35368825      -0.65826583      -0.78162191       0.35368825      -0.65826583      -0.78162191 
Ti       3.00534603      -0.09708588       4.85322639       1.41281060      -1.29547269       0.10708576      47.86700000       0.56072236       0.01098283      -0.55477039       0.56072236       0.01098283      -0.55477039 
Ti       4.17745552       0.79240721       7.18780236      -1.72886161      -0.43892810      -1.91334715      47.86700000       1.06601752       0.09022919      -0.68644782       1.06601752       0.09022919      -0.68644782 
Ti       2.75696970       0.07605012       9.23345671      -1.54567676      -0.20746865      -5.23183808      47.86700000       0.42153015      -0.67744084       0.71978070       0.42153015      -0.67744084       0.71978070 
Ti       4.35480993       0.75961178      12.16395065      -0.11784823       1.03986271       0.84859850      47.86700000       0.23315886       0.14550823      -0.58886139       0.23315886       0.14550823      -0.58886139 
Ti       4.51156088       2.77863128       0.82344872       0.04271311       0.38316670      10.76563519      47.86700000      -0.33995479      -0.85360574      -1.32189418      -0.33995479      -0.85360574      -1.32189418 
Ti       6.22447748       3.12590991       2.56761940       3.32000895      -2.55702748       2.40780792      47.86700000      -0.15067545       1.16305535      -0.48709331      -0.15067545       1.16305535      -0.48709331 
Ti       4.40986906       2.48247263       4.79810502      -0.52394442      -0.46799620       0.64100666      47.86700000      -0.11427830       0.46130199       0.44201696      -0.11427830       0.46130199       0.44201696 
Ti       5.79099246       3.22495042       7.01886308      -0.83669707      -1.77790961      -2.06656509      47.86700000       0.23239839       0.40732995       0.75917813       0.23239839       0.40732995       0.75917813 
Ti       4.33890956       2.36125056       9.14604603      -0.44023754      -0.96908011      -4.52836591      47.86700000       0.36915643       1.05999442       2.23671527       0.36915643       1.05999442       2.23671527 
Ti       5.88862402       3.50219253      12.06514007      -2.59193314       0.48023299      -0.20527345      47.86700000      -0.44867461      -0.41448294      -0.39733704      -0.44867461      -0.41448294      -0.39733704 
Ti       2.84939303      -5.27591256      -0.40527148       0.61948369      -0.32703804      -5.14338783      47.86700000       0.53522136       0.32929805       0.88390614       0.53522136       0.32929805       0.88390614 
Ti       4.66073031      -4.04975712       2.56489668       2.04230602       1.79771946       1.91146366      47.86700000      -0.97999284      -0.43940925      -0.81480484      -0.97999284      -0.43940925      -0.81480484 
Ti       2.98180784      -4.99842088       5.17215783       0.23008129      -0.24210598       3.48633109      47.86700000      -0.35484031      -1.23359735      -1.00412449      -0.35484031      -1.23359735      -1.00412449 
Ti       4.35089906      -4.36844885       7.30917847      -0.70304832      -0.53778694       2.15280436      47.86700000       0.48030654       0.82330250       1.03797908       0.48030654       0.82330250       1.03797908 
Ti       2.86803529      -5.00199842       9.56908647      -1.06317009       0.66916398      -1.95026072      47.86700000      -0.38691461      -0.60050270       0.37548228      -0.38691461      -0.60050270       0.37548228 
Ti       4.32895346      -4.29104523      11.81637806       0.25056292       1.69817181      -3.40621872      47.86700000       0.12704735       0.26907287      -0.40951467       0.12704735       0.26907287      -0.40951467 
Ti       4.36928713      -2.39449124      -0.05845790      -2.35268472       1.02228130      -0.10658378      47.86700000      -0.58009593      -0.55530703       0.66179588      -0.58009593      -0.55530703       0.66179588 
Ti       5.94905398      -1.64939817       2.63395090      -0.10391442       1.51748623       3.51512780      47.86700000      -0.66374270       0.50877523      -0.64914647      -0.66374270       0.50877523      -0.64914647 
Ti       4.42747934      -2.95917787       5.11644511       0.63332692      -2.16414882       1.89520658      47.86700000       0.23841312       1.74064263      -1.07168629       0.23841312       1.74064263      -1.07168629 
Ti       5.70643178      -1.42224822       6.98718057      -0.58394783       1.84658370      -1.70924869      47.86700000       1.32132409      -1.33882972       1.20199581       1.32132409      -1.33882972       1.20199581 
Ti       4.49577504      -2.18460294       9.58891179       1.15034457       3.15726530      -2.61854336      47.86700000       0.43801065      -1.15709984      -0.41247354       0.43801065      -1.15709984      -0.41247354 
Ti       5.89739746      -1.72328880      12.17910151       1.61247555      -0.48150699       1.39191549      47.86700000       0.18264153       0.18940927      -0.35465720       0.18264153       0.18940927      -0.35465720 
Ti       5.74554276       0.11514060       0.17200435      -4.05450348       0.84514004       3.12023528      47.86700000       0.15969646       0.19236889       0.28963810       0.15969646       0.19236889       0.28963810 
Ti       7.60236294       0.80452929       2.65117609       2.08619682       0.33957257       2.70065014      47.86700000       0.03851986       0.66488671      -1.13765812       0.03851986       0.66488671      -1.13765812 
Ti       6.31885951       0.00787029       4.85876912       3.40809467       0.96817695       1.79217408      47.86700000      -1.35914105       0.77453299       0.27823049      -1.35914105       0.77453299       0.27823049 
Ti       7.71832175       0.69267220       7.30889109       1.50797516      -1.69927343       0.07503643      47.86700000      -1.78110216       0.12854346      -0.46640329      -1.78110216       0.12854346      -0.46640329 
Ti       5.82302002      -0.00585465       9.61897268      -0.07655084       0.40541335      -1.25386650      47.86700000       0.54370199       0.38961666       0.10471670       0.54370199       0.38961666       0.10471670 
Ti       7.33798029       1.01576140      12.08527170      -2.53084617      -1.36884542       0.48425320      47.86700000      -0.41991583      -0.33246240      -0.06119857      -0.41991583      -0.33246240      -0.06119857 
54
Lattice="4.425 -7.66432482349 0.0 4.425 7.66432482349 0.0 0.0 0.0 24.451989482400002" Properties=species:S:1:pos:R:3:momenta:R:3:masses:R:1:force:R:3:forces:R:3 energy=-302.282625003 config_type=HMD_iter10 pbc="T T T"
Ti       0.23256641       1.17224799       0.21326365      -1.18272818      -3.68665195       5.20327598      47.86700000       0.83969657       0.17657685      -0.18153899       0.83969657       0.17657685      -0.18153899 
Ti       1.50216612       0.42467161       2.71481832      -3.55822424      -1.03903505      -1.49186825      47.86700000       0.44884630      -0.42410146      -0.27188572       0.44884630      -0.42410146      -0.27188572 
Ti      -0.43387956      -0.33749220       4.87570042      -4.01513687       0.34205012       1.92597178      47.86700000       1.37814622      -0.20581598       0.51597634       1.37814622      -0.20581598       0.51597634 
Ti       1.27006635       0.68502967       7.16352267      -0.96517299       0.31227027       4.29905368      47.86700000       0.31509277       0.24944802      -0.14400606       0.31509277       0.24944802      -0.14400606 
Ti       0.06435910      -0.25250685       9.47510733       1.89981238      -0.06192518       1.10081543      47.86700000       0.29054561       0.37372561       1.01345603       0.29054561       0.37372561       1.01345603 
Ti       1.34523872       0.87620739      11.84215047       0.44287737      -0.72559263      -2.29145836      47.86700000      -0.32147571      -0.27997257       0.16130131      -0.32147571      -0.27997257       0.16130131 
Ti       1.87096234       3.92204272      -0.59409841       0.77475847       1.77342603       1.43000764      47.86700000       0.70721044      -0.30479116       0.81470887       0.70721044      -0.30479116       0.81470887 
Ti       2.79021306       2.87723053       2.00207739       2.05115069      -2.37305982      -2.67542377      47.86700000       0.51553961      -0.36854824       0.05399505       0.51553961      -0.36854824       0.05399505 
Ti       1.11752885       2.33755657       4.75872887      -0.47536774       1.77295691      -2.21971361      47.86700000       0.55006184      -0.49409966       0.27204962       0.55006184      -0.49409966       0.27204962 
Ti       2.48358550       3.39822620       7.24747163       5.56856840       0.58405692       0.48519985      47.86700000       1.17477414      -0.93951500      -0.02639649       1.17477414      -0.93951500      -0.02639649 
Ti       1.73763831       2.39276044       9.85298645       2.05580695      -1.94592552      -2.21904878      47.86700000      -1.32259547       0.24358332      -0.92409103      -1.32259547       0.24358332      -0.92409103 
Ti       2.22801208       3.52899279      12.29797604       1.70625037       1.11745655       2.19722263      47.86700000       0.04967288       0.60605915      -0.69040880       0.04967288       0.60605915      -0.69040880 
Ti       3.51451165       6.17164190       0.46487582      -1.54512234       4.16149803       1.13052281      47.86700000      -0.64674563      -0.63245908      -0.71939994      -0.64674563      -0.63245908      -0.71939994 
Ti       4.67398530       5.29432567       2.84474847      -2.18004796       0.58481243       0.09034880      47.86700000      -0.73207347       0.18502649      -0.65341220      -0.73207347       0.18502649      -0.65341220 
Ti       2.69177282       4.63995918       4.97620080       0.76340515      -0.36735197       1.12468414      47.86700000      -0.01292859      -0.01673241      -0.53427154      -0.01292859      -0.01673241      -0.53427154 
Ti       4.28735798       5.80548689       7.14042047      -1.38235797       0.11354015      -3.80537704      47.86700000      -0.65526576      -0.10373231       0.72075286      -0.65526576      -0.10373231       0.72075286 
Ti       2.70861873       5.14666357       9.54559130      -0.21318775       1.14010734       0.56664949      47.86700000       0.79347053      -0.63099225      -0.16477092       0.79347053      -0.63099225      -0.16477092 
Ti       4.28625535       5.50903695      11.62347893      -2.14415593       0.14138432      -0.78617285      47.86700000      -0.24973799       0.93358866       0.33936328      -0.24973799       0.93358866       0.33936328 
Ti       1.71742412      -1.19736353       0.34421615      -0.16154213      -1.73402865      -0.46366656      47.86700000       0.07053031      -0.84025011      -0.08238082       0.07053031      -0.84025011      -0.08238082 
Ti       3.00726931      -1.99230727       2.60783387       1.98957583      -1.57637371      -2.31649128      47.86700000       0.77222194       0.34698999      -0.49101711       0.77222194       0.34698999      -0.49101711 
Ti       1.16212054      -2.87944260       5.19091969       2.35482978       1.65015099      -1.51808118      47.86700000      -0.35784842      -0.38351178      -0.81366401      -0.35784842      -0.38351178      -0.81366401 
Ti       2.84765892      -1.91539135       7.06001917       1.21413342      -3.31632615      -3.04632558      47.86700000      -0.27546973       0.77924113       0.95785340      -0.27546973       0.77924113       0.95785340 
Ti       1.53944310      -2.52238192       9.58072723      -0.05619326      -1.23122136       0.63040511      47.86700000       0.12700044      -0.97031905       0.04870465       0.12700044      -0.97031905       0.04870465 
Ti       2.90954828      -1.59366585      11.61927200      -0.71704035       2.29134176       0.25284693      47.86700000      -0.00692963      -0.19247090       0.25821882      -0.00692963      -0.19247090       0.25821882 
Ti       3.44771758       0.50857039       0.37528058       2.96980874      -1.10906013      -3.41243785      47.86700000      -1.34218147       1.42504554      -0.26292027      -1.34218147       1.42504554      -0.26292027 
Ti       4.75364024       0.54516238       2.42034494      -0.36551543       1.68136016       0.46511967      47.86700000      -0.58463423      -1.00304294       0.47183462      -0.58463423      -1.00304294       0.47183462 
Ti       3.02167022      -0.39393603       5.21687268       1.22903086       1.32027702      -0.19422209      47.86700000      -0.89100395      -0.14991128      -0.56010198      -0.89100395      -0.14991128      -0.56010198 
Ti       4.37581463       0.76323736       7.45279392      -5.06734794       2.72149818      -0.43345917      47.86700000      -0.36832913       0.63122207      -0.71945992      -0.36832913       0.63122207      -0.71945992 
Ti       2.95930255       0.03515536       9.68979709      -1.33212947      -1.42191649      -3.52620141      47.86700000       0.90120351      -0.95726104       0.02944213       0.90120351      -0.95726104       0.02944213 
Ti       4.54680300       1.16359426      11.79757623       2.71503694      -1.48429718       2.91351881      47.86700000       0.31119099       1.08332370       0.09789122       0.31119099       1.08332370       0.09789122 
Ti       4.61727536       3.59223576       0.18528066       1.99505727       1.36215766      -1.62427277      47.86700000       0.19345209       0.23251731       0.06800455       0.19345209       0.23251731       0.06800455 
Ti       6.03402221       2.99246492       2.50998260      -0.37101321       2.82109945       2.40444164      47.86700000      -0.39771767       0.12942333      -0.34907063      -0.39771767       0.12942333      -0.34907063 
Ti       4.05251042       2.01625682       4.44994490      -3.89235109      -1.72315101      -0.11963632      47.86700000      -0.18596366       1.28007547       1.54741164      -0.18596366       1.28007547       1.54741164 
Ti       5.78512324       3.17114617       7.38550812       0.50837839       3.36068021       1.38937700      47.86700000      -0.69066730       0.04110502      -0.58962008      -0.69066730       0.04110502      -0.58962008 
Ti       4.36823391       2.78239433       9.89623372       4.14742164      -0.35373063       0.73087641      47.86700000       0.97036636      -0.10416212       0.15962854       0.97036636      -0.10416212       0.15962854 
Ti       5.89928834       3.13577791      11.74249273      -0.33889238       0.21974422      -2.39216256      47.86700000      -0.54270709      -0.90725318      -0.07014380      -0.54270709      -0.90725318      -0.07014380 
Ti       3.82457406      -3.47844743       0.46787599      -1.37860306       1.10198002       2.86488451      47.86700000      -1.20754615      -0.16555704      -0.61122922      -1.20754615      -0.16555704      -0.61122922 
Ti       4.37249593      -4.76902737       2.26488941       0.60608299      -1.28670395      -2.71085868      47.86700000       0.87158547      -0.20672356       0.93755469       0.87158547      -0.20672356       0.93755469 
Ti       2.63286008      -5.61702112       4.59048897       0.29556878       1.45788549       2.44170030      47.86700000      -0.64310440      -0.17810772       0.64298663      -0.64310440      -0.17810772       0.64298663 
Ti       4.02229044      -4.49817142       7.02122607      -6.37675188       4.69624830      -0.27668764      47.86700000       0.71422195       0.12723579       0.15604794       0.71422195       0.12723579       0.15604794 
Ti       3.08496637      -5.40907248       9.47056172      -2.22350706      -0.81252715      -1.43942094      47.86700000       0.32424739       0.79766814       0.77829941       0.32424739       0.79766814       0.77829941 
Ti       4.38225679      -4.21805942      11.59808764       2.46271443       0.10831282       1.55945611      47.86700000       0.78433521      -0.23377731       0.96720196       0.78433521      -0.23377731       0.96720196 
Ti       5.09187750      -1.21384918      -0.21873260      -1.39901087      -1.65615450       1.38706258      47.86700000      -1.70835528      -4.40667214      -1.26619380      -1.70835528      -4.40667214      -1.26619380 
Ti       6.08651582      -2.44053887       2.39202420       5.08164533       0.09303815       3.97976648      47.86700000      -0.57128001       1.03842760       0.16655994      -0.57128001       1.03842760       0.16655994 
Ti       3.82570656      -3.10126353       4.74580179       0.93084603      -5.49930916      -3.06730938      47.86700000       1.40844783       0.49223036      -0.27501829       1.40844783       0.49223036      -0.27501829 
Ti       5.56645410      -1.85071069       7.13357831      -2.90751522      -2.74288551      -2.46483807      47.86700000       0.51271184       0.08468278      -0.28247452       0.51271184       0.08468278      -0.28247452 
Ti       4.49131599      -2.77715139       9.36789764      -0.11579999      -1.72399017      -0.41885928      47.86700000      -0.80498071       0.49965285      -0.06786975      -0.80498071       0.49965285      -0.06786975 
Ti       5.85456626      -1.20862959      11.60130089       3.43711408      -1.42204287       0.15126191      47.86700000      -0.12934311      -1.53890578       0.77414935      -0.12934311      -1.53890578       0.77414935 
Ti       6.10721201       0.72768740       0.14220109       1.02460072       0.94816019      -0.05176699      47.86700000       2.54473675       5.04996792       0.83657000       2.54473675       5.04996792       0.83657000 
Ti       7.58890117       0.21662166       2.43036964       4.11859368      -2.38856505      -2.04164419      47.86700000      -0.34122063       0.00504217      -0.22547452      -0.34122063       0.00504217      -0.22547452 
Ti       5.76004776      -0.55737329       4.76015390      -2.31352472       1.06834994       1.83661564      47.86700000      -0.49021568      -0.10764406       0.24712592      -0.49021568      -0.10764406       0.24712592 
Ti       7.31684182       0.75972042       7.29723161      -0.61475820       0.31249249       0.38150500      47.86700000      -0.59014589      -0.76242048      -0.98277052      -0.59014589      -0.76242048      -0.98277052 
Ti       6.21478754      -0.01187766       9.69336730      -1.25581582       2.70710862       1.62875824      47.86700000      -1.47616914       0.43507966      -0.15592031      -1.47616914       0.43507966      -0.15592031 
Ti       7.48550474       0.63655031      12.44132284      -3.79425464      -0.28361893       2.43605604      47.86700000      -0.02267310       0.26181170      -0.92157752      -0.02267310       0.26181170      -0.92157752 
54
Lattice="4.425 -7.66432482349 0.0 4.425 7.66432482349 0.0 0.0 0.0 24.451989482400002" Properties=species:S:1:pos:R:3:momenta:R:3:masses:R:1:force:R:3:forces:R:3 energy=-302.047616062 config_type=HMD_iter2 pbc="T T T"
Ti       0.22683291      -0.27883827      -0.35431373       3.90448180       1.08993699       2.24418917      47.86700000       0.24937655       0.27463014      -0.09283856       0.24937655       0.27463014      -0.09283856 
Ti       1.30695866       0.59242887       2.08421375      -1.95055419       0.32592416      -0.41677345      47.86700000       0.10568273      -0.19718236      -0.13963138       0.10568273      -0.19718236      -0.13963138 
Ti      -0.29059362       0.23373286       4.61753343       5.03865875      -3.23571885      -2.24754206      47.86700000       0.32854734      -0.06294568      -0.13003314       0.32854734      -0.06294568      -0.13003314 
Ti       1.17537500       0.92443512       7.12530630       0.99502296       2.98463021      -1.41015420      47.86700000      -0.33268516       0.00101945      -1.15631369      -0.33268516       0.00101945      -1.15631369 
Ti      -0.36375183      -0.24817462       9.29299750       1.36225421      -0.24058591      -0.59090779      47.86700000       0.95824175      -0.07718798      -0.43536118       0.95824175      -0.07718798      -0.43536118 
Ti       1.39910586       0.48179316      11.49296203       4.38057935       2.15836690       0.92906015      47.86700000       0.01262809       0.09898933       0.04326677       0.01262809       0.09898933       0.04326677 
Ti       2.08578703       2.54542826       0.38019475      -2.38848017      -2.01328497       0.75745501      47.86700000      -0.52927239       0.40533794      -0.28993678      -0.52927239       0.40533794      -0.28993678 
Ti       2.94514076       3.26579832       2.62677949       0.67713742       2.52951466       5.42823416      47.86700000      -0.01771065      -0.32019191      -0.47703132      -0.01771065      -0.32019191      -0.47703132 
Ti       1.53540019       2.74485886       5.03192551      -1.20075884       3.15835548       0.94274779      47.86700000      -0.21921456      -0.45197306      -0.35183659      -0.21921456      -0.45197306      -0.35183659 
Ti       2.64846671       3.78243434       7.30875319      -1.64466980       1.28254373      -0.44973861      47.86700000       0.03954411      -0.34137347       0.10488401       0.03954411      -0.34137347       0.10488401 
Ti       1.59337117       2.19942807       9.47130680       0.19138256       0.73484752      -1.25178453      47.86700000      -0.25809850       0.33680301      -0.02688673      -0.25809850       0.33680301      -0.02688673 
Ti       2.70478401       3.21641565      12.55439876       2.08690394      -1.77384051      -0.26077139      47.86700000      -1.28815089      -0.19773564      -1.41201939      -1.28815089      -0.19773564      -1.41201939 
Ti       3.18982586       5.49799372       0.30252111       2.93977618      -3.55593892      -3.55133889      47.86700000       0.23840693      -0.23136994      -0.14670667       0.23840693      -0.23136994      -0.14670667 
Ti       4.68888867       5.52535092       2.84295774       3.60508999      -1.70918681      -0.92569283      47.86700000      -0.54508299       0.47040342      -0.87599775      -0.54508299       0.47040342      -0.87599775 
Ti       2.72154782       5.28730530       4.91035914      -1.82057714       1.25748367       1.46970952      47.86700000       0.91704159       0.59880949       0.59600010       0.91704159       0.59880949       0.59600010 
Ti       4.03825646       6.11450007       7.33738606      -0.12580262       1.18551852      -1.36750592      47.86700000      -0.02700389       0.37816697       0.75713243      -0.02700389       0.37816697       0.75713243 
Ti       2.41916513       4.81267077      10.08164159      -0.93994278       2.04611519      -0.05004727      47.86700000       1.16854439       0.20766408      -0.39030856       1.16854439       0.20766408      -0.39030856 
Ti       3.77153780       5.84696271      11.63231936       2.30137226      -3.15208047      -0.95357900      47.86700000       0.06826966       0.53546163       0.57060894       0.06826966       0.53546163       0.57060894 
Ti       2.07005066      -2.57942054       0.58187214      -0.37944994       0.45378522      -1.23538042      47.86700000       0.05654061      -0.04800424       0.20831128       0.05654061      -0.04800424       0.20831128 
Ti       2.73251249      -1.80946628       2.95378994       1.16197657       0.89360465       2.39255606      47.86700000       1.72515778      -0.42664300      -0.64713548       1.72515778      -0.42664300      -0.64713548 
Ti       1.39845261      -2.25314200       5.36956363      -2.67202699       0.79255276       0.90755023      47.86700000      -3.73580626      -2.62327431      -5.35304994      -3.73580626      -2.62327431      -5.35304994 
Ti       2.55854154      -1.49892523       7.05076746      -1.62487204      -1.59804056       1.13301525      47.86700000       3.91568502       2.04643960       4.72926672       3.91568502       2.04643960       4.72926672 