16
Lattice="5.9 0.0 0.0 -2.95 5.109549882328188 0.0 0.0 0.0 9.369200000000001" Properties=species:S:1:pos:R:3:momenta:R:3:masses:R:1:force:R:3:forces:R:3 energy=-90.5481793227 config_type=HMD_iter9 pbc="T T T"
Ti      -0.97707643      -2.41961485       2.69714066       7.00711696       3.75477444      -0.44521944      47.86700000       0.73980231      -0.59298635      -0.13966538       0.73980231      -0.59298635      -0.13966538 
Ti       5.43335859       0.23923700       0.80528102      -6.67753223      -4.24686747      -0.11835777      47.86700000       0.68651468      -1.54823321       0.57626919       0.68651468      -1.54823321       0.57626919 
Ti       8.45770264      -0.01945211       1.08353795      -0.97307523      -0.76124391       1.85913198      47.86700000      -0.02550116      -0.86231786      -2.09187423      -0.02550116      -0.86231786      -2.09187423 
Ti       6.80666937      -0.23327333       3.11116821      -2.47895602       1.36906677       3.72437056      47.86700000      -0.48987095      -0.11531162      -0.04037220      -0.48987095      -0.11531162      -0.04037220 
Ti      -1.06436036       5.05928453      -1.89171065       2.24413252       3.70041064       4.74856294      47.86700000       0.46183775      -0.08605252       0.46097043       0.46183775      -0.08605252       0.46097043 
Ti       1.42840017       1.97835013       0.06048664       1.59824559       1.49577707      -2.96781743      47.86700000      -0.61756145       1.88023126       0.49100036      -0.61756145       1.88023126       0.49100036 
Ti       4.18631776       2.55830983       0.65698648      -4.80186443       0.33794172       3.38722392      47.86700000      -1.25675249       0.61764588      -0.85707648      -1.25675249       0.61764588      -0.85707648 
Ti      -2.24939793      -0.04815726       3.06635563      13.30132832      -6.05468617       4.62340320      47.86700000       0.57605760      -0.40589428       0.53119223       0.57605760      -0.40589428       0.53119223 
Ti      -6.71085671       1.12790808       5.65217294      -1.47235832      -2.56893941      -2.55212643      47.86700000       1.22416270       0.45295537      -0.44891259       1.22416270       0.45295537      -0.44891259 
Ti      -0.25229102       2.27963846       7.65488705      -2.83095536       3.64643883      -6.92405331      47.86700000       1.10326645       0.39274481      -0.97161263       1.10326645       0.39274481      -0.97161263 
Ti      -2.38428874      -1.20839934       5.32346654      -2.00300351      -1.57549809      -1.66811472      47.86700000       1.13611512      -1.22583759       0.79449089       1.13611512      -1.22583759       0.79449089 
Ti       5.89839294       7.36984705       7.29518653      -6.55109085      -2.78720776       4.96823624      47.86700000       0.22495973       0.36462115       0.30925241       0.22495973       0.36462115       0.30925241 
Ti      -3.38023713       5.07800437       7.78128866       1.13713884       3.04451138      -0.35891406      47.86700000      -2.09393744      -0.92026886      -0.43487882      -2.09393744      -0.92026886      -0.43487882 
Ti      -0.43002899       6.35724247       4.93432454       3.38379347       1.20817386      -3.16553844      47.86700000      -1.92046079       0.58140384       0.14890240      -1.92046079       0.58140384       0.14890240 
Ti      -3.78374445      -2.99559015       2.69974143      -2.23890648      -6.65452259       0.19126484      47.86700000       0.89755285       1.73550346       1.78481209       0.89755285       1.73550346       1.78481209 
Ti       0.82144029       8.94033100       5.28488638       1.35598673       6.09187071      -5.30205209      47.86700000      -0.64618490      -0.26820348      -0.11249769      -0.64618490      -0.26820348      -0.11249769 
