16
Lattice="5.9 0.0 0.0 -2.95 5.109549882328188 0.0 0.0 0.0 9.369200000000001" Properties=species:S:1:pos:R:3:momenta:R:3:masses:R:1:force:R:3:forces:R:3 energy=-90.1625015725 config_type=HMD_iter3 pbc="T T T"
Ti      -1.00596510      -4.10033094      -0.17479239      -3.59520414       1.19271046      -5.78410003      47.86700000      -0.80313540      -1.65179031       1.33659320      -0.80313540      -1.65179031       1.33659320 
Ti      -0.74083580       4.29728306       2.27579420       1.43184795       5.73912858       8.25521058      47.86700000      -0.29322212       1.33341468       0.46742543      -0.29322212       1.33341468       0.46742543 
Ti       3.05719891      -7.22890221       0.11527448      -5.16686044      -0.19749549      -0.01339329      47.86700000       0.73332019       0.68398826       0.18344156       0.73332019       0.68398826       0.18344156 
Ti       2.89073044       4.98246677       2.42653760      -1.67601679       6.10979539      -4.98798549      47.86700000       0.24184854      -0.70118785      -0.39958512       0.24184854      -0.70118785      -0.39958512 
Ti      -2.77809412      -1.95386852       0.02440809       2.40734083      -6.28405890      -4.83123833      47.86700000      -0.99855076      -0.46830178       0.34043823      -0.99855076      -0.46830178       0.34043823 
Ti      -1.68470768       7.47769926       2.81319049       1.64568391       5.34278771       3.54878422      47.86700000       0.69879761      -3.28062127      -4.20576335       0.69879761      -3.28062127      -4.20576335 
Ti       1.80462624      -4.94704700      -0.21114942      -0.55308634      -2.34108818       0.50363281      47.86700000      -0.17044485       1.60675607      -0.22620436      -0.17044485       1.60675607      -0.22620436 
Ti       1.07067902       6.93183288       2.04641705       1.01647364      -1.51537814       3.22440579      47.86700000      -0.19212341      -0.45763294      -0.10701523      -0.19212341      -0.45763294      -0.10701523 
Ti       3.08978097       3.42312628       4.77215173      -0.95172773       0.20450173      -6.79274720      47.86700000       6.85743414      -1.35877078       0.66219448       6.85743414      -1.35877078       0.66219448 
Ti      -1.67341046       1.88051136       6.81472801      -4.26437994      -2.29022790       1.60003064      47.86700000       0.68190645       0.73356475       0.87120160       0.68190645       0.73356475       0.87120160 
Ti       6.93691560       3.97713860       4.31083631       3.59692909      -5.05592138       0.13363157      47.86700000      -8.39761040       3.62149491       3.26290019      -8.39761040       3.62149491       3.26290019 
Ti       0.04597574      -0.64880695       7.23170266      -1.71363138       4.93853501       3.29201487      47.86700000      -0.26243172       2.15809531      -0.19800722      -0.26243172       2.15809531      -0.19800722 
Ti       1.39644444       6.37711811       4.50525514      -1.91343392      -3.02185590      -0.78620057      47.86700000       1.08948764       0.87268212       0.38899298       1.08948764       0.87268212       0.38899298 
Ti      -6.25334766       4.91136821       7.06825848       6.24075314      -1.82698276       1.96050785      47.86700000       1.24649647      -1.46340791      -0.93248311       1.24649647      -1.46340791      -0.93248311 
Ti       4.23195591       6.21722057       5.03874480       2.22151115       4.52217728      -1.13984415      47.86700000       0.55810798      -0.78386005      -0.86591923       0.55810798      -0.78386005      -0.86591923 
Ti       1.41205356       2.46685642       7.15784275       1.27380097      -5.51662748       1.81729072      47.86700000      -0.98988036      -0.84442321      -0.57821006      -0.98988036      -0.84442321      -0.57821006 
