16
Lattice="5.9 0.0 0.0 -2.95 5.109549882328188 0.0 0.0 0.0 9.369200000000001" Properties=species:S:1:pos:R:3:momenta:R:3:masses:R:1:force:R:3:forces:R:3 energy=-91.0471752156 config_type=HMD_iter20 pbc="T T T"
Ti       1.38728626       3.56172486      -0.31317709      -2.28698627      -3.25951384       6.71661883      47.86700000       0.62182554      -0.04315553       0.31831592       0.62182554      -0.04315553       0.31831592 
Ti       2.88049027       4.14119337       2.65578486       0.96522733      -2.29428862       3.02976935      47.86700000      -0.54377368       1.48264774      -1.88882779      -0.54377368       1.48264774      -1.88882779 
Ti       2.57650920       0.75624336      -0.38278946       3.60125308      11.05472361      -1.17978473      47.86700000      -0.34442907      -0.27918881       0.60528802      -0.34442907      -0.27918881       0.60528802 
Ti       4.36156067       1.27166733       2.45115833      -4.78588571       4.70025510       6.72974181      47.86700000      -0.89080363       0.60924542       0.15235948      -0.89080363       0.60924542       0.15235948 
Ti      -1.15008473       2.44119173      -0.16102222      -0.86735145       0.23865334      -4.50559482      47.86700000      -1.22788922       2.68315327       0.68469620      -1.22788922       2.68315327       0.68469620 
Ti      -1.41335923       6.95506248       1.86156424      -3.61036706      -1.79446983      -9.59111871      47.86700000      -0.56260484      -1.30448301       1.47430115      -0.56260484      -1.30448301       1.47430115 
Ti       2.63944283       5.47032969      -0.03014600       1.79915952       2.80510308      -3.29797858      47.86700000       2.05229537      -1.78646129       0.65657887       2.05229537      -1.78646129       0.65657887 
Ti      -0.46605113       4.01917350       2.54614189       0.91560240       6.81321020       1.93455831      47.86700000       1.40051525      -0.14013642      -0.80637209       1.40051525      -0.14013642      -0.80637209 
Ti       0.30169114      -2.05972013       4.59163733       3.95380428      -3.75882219      -6.00368129      47.86700000       0.45444265      -3.51686863       2.39742423       0.45444265      -3.51686863       2.39742423 
Ti      -1.23631950       1.10720145       7.19309503       0.94403758      -2.08049305       2.74013939      47.86700000      -1.07071815       0.52097966      -0.27369896      -1.07071815       0.52097966      -0.27369896 
Ti       3.20679284      -3.05860232       4.62884766      -0.31188764      -5.02388773      -0.10780190      47.86700000      -0.52204197       1.33105223      -0.35440533      -0.52204197       1.33105223      -0.35440533 
Ti       1.49193587       1.97964675       7.25282915      -3.49013108      -1.77238988       1.75135922      47.86700000       0.39236567      -1.67561188      -0.96386053       0.39236567      -1.67561188      -0.96386053 
Ti       1.78199159       0.01722085       4.60577926      -3.14085486      -3.68502749      -1.36755215      47.86700000       0.18468674       1.34138701       0.06401247       0.18468674       1.34138701       0.06401247 
Ti      -6.20221572       3.83466161       6.93443754      -0.39042110       0.80260235       6.87699820      47.86700000       0.54163202       0.86302432      -0.55935954       0.54163202       0.86302432      -0.55935954 
Ti       4.38501053      -0.25851117       4.80122861       4.61314764      -0.95415699      -0.28199491      47.86700000       0.33789371      -0.20454363      -0.43356821       0.33789371      -0.20454363      -0.43356821 
Ti      -2.74468090       3.88518252       7.57983087       2.09165335      -1.79149807      -3.44367800      47.86700000      -0.82339637       0.11895956      -1.07288391      -0.82339637       0.11895956      -1.07288391 
