16
Lattice="5.9 0.0 0.0 -2.95 5.109549882328188 0.0 0.0 0.0 9.369200000000001" Properties=species:S:1:pos:R:3:momenta:R:3:masses:R:1:force:R:3:forces:R:3 energy=-90.4801735917 config_type=HMD_iter16 pbc="T T T"
Ti      -2.18907169       3.11399762      -0.24634641       2.11495300       5.18110231      -1.22553701      47.86700000      -1.45233639       1.25972992       0.70543077      -1.45233639       1.25972992       0.70543077 
Ti       1.76613609       3.67745044       2.42935490       2.61319360      -4.83829940       1.27722803      47.86700000       0.30591861      -1.72954072      -0.07996522       0.30591861      -1.72954072      -0.07996522 
Ti       0.41262901       3.32887754       0.17442346      -0.20337194       0.38166050       8.32529422      47.86700000       0.51039417       0.61907494      -0.06812511       0.51039417       0.61907494      -0.06812511 
Ti       3.00487128       0.25296639       2.54506082       0.18130296      -7.27216499      -3.13313985      47.86700000      -0.06825219       2.27839317      -1.02708533      -0.06825219       2.27839317      -1.02708533 
Ti      -3.92124245       6.08592024      -0.05426728      -0.49083878       7.03098073      -3.72697083      47.86700000      -0.62169139      -0.96365707       0.10354969      -0.62169139      -0.96365707       0.10354969 
Ti      -1.79674007       3.72120049       2.52218591      -4.05088403      -1.01932967       1.05222017      47.86700000       0.04720647      -1.94301763      -0.32604933       0.04720647      -1.94301763      -0.32604933 
Ti      -1.27489632       5.82807689       0.20447588     -11.75389001      -1.91356100      -5.79717623      47.86700000       0.65831714       0.28123747      -1.51189954       0.65831714       0.28123747      -1.51189954 
Ti       2.83370444       5.92394980       2.08875362       4.87772384      -4.73130122       2.91090815      47.86700000       0.71034094       2.06212134       0.64113848       0.71034094       2.06212134       0.64113848 
Ti       1.55789580      -3.40479735       4.49307395       2.71458953      -1.96852551       2.10280907      47.86700000       0.63729320       0.69695363       0.16308957       0.63729320       0.69695363       0.16308957 
Ti       0.54395624       2.42446859       7.13894747      -3.46485007       0.75207627      -2.76310120      47.86700000       0.93878562      -0.81836768      -0.48686448       0.93878562      -0.81836768      -0.48686448 
Ti       4.81582422      -2.80717662       4.75146191      -1.15778611       5.69435241      -8.25118494      47.86700000       0.86371667      -0.79249159      -0.02193966       0.86371667      -0.79249159      -0.02193966 
Ti       2.25234850      -0.08351253       6.55740404       2.74595508       1.12196017       3.99324372      47.86700000      -0.20756195      -0.29859223       1.56614960      -0.20756195      -0.29859223       1.56614960 
Ti       0.26880090       0.02998914       4.77877679       3.93215283      -5.93349980      -0.98512044      47.86700000      -0.34200869      -1.06248055      -0.06857133      -0.34200869      -1.06248055      -0.06857133 
Ti      -2.21293647       2.14184832       6.92261883       4.66501289       3.26588855       3.56030494      47.86700000      -0.08384145       0.37763266       0.36451551      -0.08384145       0.37763266       0.36451551 
Ti       3.16758037      -0.81014064       4.56429989      -1.91727738       1.26472155      -2.45676135      47.86700000      -0.74834955       0.03883532       0.95662798      -0.74834955       0.03883532       0.95662798 
Ti       2.57114015       4.64054755       7.34497622      -0.80598540       2.98393910       5.11698355      47.86700000      -1.14793120      -0.00583098      -0.91000161      -1.14793120      -0.00583098      -0.91000161 
