16
Lattice="5.9 0.0 0.0 -2.95 5.109549882328188 0.0 0.0 0.0 9.369200000000001" Properties=species:S:1:pos:R:3:momenta:R:3:masses:R:1:force:R:3:forces:R:3 energy=-91.3346780346 config_type=HMD_iter12 pbc="T T T"
Ti      -1.83583776      -2.40422302      -0.41727398      -3.43882848       1.72340227       5.78848547      47.86700000      -1.48560422      -0.09817565       0.98775013      -1.48560422      -0.09817565       0.98775013 
Ti      -0.34753391       1.17102184       2.13525343      -3.16775068       2.34585275       5.28311764      47.86700000      -0.38704503       0.83206822       0.36936910      -0.38704503       0.83206822       0.36936910 
Ti       0.87934369      -2.80254141       0.18901345       0.11165818      -4.41356309       0.78200284      47.86700000       0.52875950       1.01419026      -0.39636569       0.52875950       1.01419026      -0.39636569 
Ti       2.52837361       1.72622835       2.50576539       0.03723901      -5.61944112      -5.93792717      47.86700000      -0.80718039      -0.19288265       0.18879521      -0.80718039      -0.19288265       0.18879521 
Ti      -4.11436659       0.17422045      -0.04384210      -4.44982298       2.57155650       5.75359087      47.86700000       0.76755908      -0.49457702      -0.03290103       0.76755908      -0.49457702      -0.03290103 
Ti      -1.97214344       3.79414076       2.58358167       4.61437068       6.06356956       2.05631383      47.86700000       0.39021918       0.40107132      -1.06747279       0.39021918       0.40107132      -1.06747279 
Ti      -0.84291292       0.08653026       0.04927758       1.32626826      -5.49307157       1.83175927      47.86700000      -0.62588811      -0.67580747       0.52826888      -0.62588811      -0.67580747       0.52826888 
Ti       0.28806886       4.13327838       2.00696427      -4.65353085       1.96830627      -3.00567046      47.86700000       1.48998803      -0.51154276      -0.37774515       1.48998803      -0.51154276      -0.37774515 
Ti       1.15001679       0.75289874       4.72574171       2.83480919       4.40589655       1.35566837      47.86700000       0.34283375       0.60520267       0.00899977       0.34283375       0.60520267       0.00899977 
Ti       1.54768470       3.55948141       6.75678473       3.90153060       3.73183415     -11.13285234      47.86700000       0.14169277       0.06147381       0.73364936       0.14169277       0.06147381       0.73364936 
Ti       3.93694864       0.62689641       5.10007493       2.36689967       1.42991423      -2.68646829      47.86700000       1.51074743       3.46716791      -1.05115221       1.51074743       3.46716791      -1.05115221 
Ti       4.55794642       3.93316664       6.88894055       1.59779679      -3.64964092      -1.12447163      47.86700000      -0.00134543      -1.05820450       0.33153215      -0.00134543      -1.05820450       0.33153215 
Ti       0.47532676       3.64977811       4.50101082       2.64709341      -3.78911336       4.41649573      47.86700000      -2.92371070      -3.73610913      -1.00233128      -2.92371070      -3.73610913      -1.00233128 
Ti      -0.19939313       6.07659173       7.34854499       3.13841322      -0.96647846      -4.56871297      47.86700000      -0.10075459       0.58373814       0.55224676      -0.10075459       0.58373814       0.55224676 
Ti       3.06719985       3.38049706       4.84317741      -3.12226440       1.90655928       0.05884983      47.86700000       0.35751899      -0.98535583       0.02862126       0.35751899      -0.98535583       0.02862126 
Ti       2.68127844       6.20570015       7.04218516      -3.74388163      -2.21558302       1.12981901      47.86700000       0.80220976       0.78774266       0.19873554       0.80220976       0.78774266       0.19873554 
