16
Lattice="5.9 0.0 0.0 -2.95 5.109549882328188 0.0 0.0 0.0 9.369200000000001" Properties=species:S:1:pos:R:3:momenta:R:3:masses:R:1:force:R:3:forces:R:3 energy=-89.1951531598 config_type=HMD_iter1 pbc="T T T"
Ti       0.23036617       0.56988076       0.29634057       1.81952328       3.67416927       2.14335910      47.86700000      -0.66367395      -0.78664115      -0.68209314      -0.66367395      -0.78664115      -0.68209314 
Ti      -0.13053708       1.90394256       2.82101786      -0.70495216      -1.24687173       1.41110051      47.86700000       0.20388846      -0.93804318      -1.24499709       0.20388846      -0.93804318      -1.24499709 
Ti       3.21200675      -0.07954888       0.51660560      -0.95981087       1.05172251       4.31391759      47.86700000      -0.99228439      -1.28364126      -2.86340929      -0.99228439      -1.28364126      -2.86340929 
Ti       2.85790132       1.62333982       1.90800364      -1.76861261      -3.49491440      -4.52997997      47.86700000      -0.67970385       1.16804896       2.44293508      -0.67970385       1.16804896       2.44293508 
Ti      -1.85528371       2.70222419       0.00244674      -2.14932233       2.48596164      -3.07053622      47.86700000       0.65193784      -0.03448596      -0.72001713       0.65193784      -0.03448596      -0.72001713 
Ti      -1.94348080       3.63679248       2.11167465      -2.89583755      -2.00909930      -1.39744299      47.86700000       1.65901627       2.12833527      -0.11647909       1.65901627       2.12833527      -0.11647909 
Ti       1.14236354       2.78912614      -0.17512039      -1.24557158       1.94692003       1.01951975      47.86700000       0.77680653      -0.06820120       1.25260741       0.77680653      -0.06820120       1.25260741 
Ti       1.69136410       4.08433641       2.61522415       1.36947889       0.59234152       1.15884980      47.86700000      -0.57822156       0.87646207      -0.52491302      -0.57822156       0.87646207      -0.52491302 
Ti       0.11149992      -0.08922785       4.85487790      -1.37151802       1.02872282       0.51089671      47.86700000      -3.65930671       2.07111126      -4.81082613      -3.65930671       2.07111126      -4.81082613 
Ti       0.55089884       1.54137862       7.05544839       0.40825355       3.54628371      -1.27538724      47.86700000      -2.76992969       3.16359350      -0.64086999      -2.76992969       3.16359350      -0.64086999 
Ti       3.24332495      -0.16608012       4.21281779       1.76066415      -3.77810373      -3.67766257      47.86700000      -0.55498216      -0.57844407       0.99463767      -0.55498216      -0.57844407       0.99463767 
Ti       3.27392705       1.58488620       6.76242972       3.40074536      -0.32449641      -1.04807728      47.86700000      -0.07970875      -0.22789409       0.78912700      -0.07970875      -0.22789409       0.78912700 
Ti      -1.71402737       2.73093560       4.70187213       1.41217938      -0.28438843       0.41225759      47.86700000       1.87944703      -0.87442439      -0.11950484       1.87944703      -0.87442439      -0.11950484 
Ti      -1.76901582       4.53322175       6.71194806       0.24736942      -2.43733611       1.53688617      47.86700000       4.35292152      -4.36905499       5.73018965       4.35292152      -4.36905499       5.73018965 
Ti       1.80993675       2.17859050       4.34922781       2.05368738      -2.53987820       1.70083395      47.86700000      -0.69797607       0.35933842       2.16970195      -0.69797607       0.35933842       2.16970195 
Ti       1.08875538       4.51986770       7.47038540      -1.37627628       1.78896681       0.79146509      47.86700000       1.15176950      -0.60605917      -1.65608904       1.15176950      -0.60605917      -1.65608904 
