16
Lattice="5.9 0.0 0.0 -2.95 5.109549882328188 0.0 0.0 0.0 9.369200000000001" Properties=species:S:1:pos:R:3:momenta:R:3:masses:R:1:force:R:3:forces:R:3 energy=-89.7082551453 config_type=HMD_iter14 pbc="T T T"
Ti       1.47214059       1.06415733      -1.66178777       2.74187868      -2.11359934      -7.86047705      47.86700000       0.24486122       1.44467513       0.96737322       0.24486122       1.44467513       0.96737322 
Ti      -0.53337468       2.45715319       0.43227400       1.66360037       3.20339904       0.08638866      47.86700000      -2.10985069      -0.14437717      -0.73609258      -2.10985069      -0.14437717      -0.73609258 
Ti       4.87309793      -2.97088563       0.44785243      -2.57995554       0.31724522      -5.47810932      47.86700000       1.47250264       0.73483545       1.30886116       1.47250264       0.73483545       1.30886116 
Ti      -2.11560250      -0.26596378       3.12195224      -1.24761501      -5.59027333       7.22544053      47.86700000       2.86197931       0.96556935       0.12718513       2.86197931       0.96556935       0.12718513 
Ti       3.61180801      -0.46761511       0.62901968      -1.32357237       0.32834985      -1.51843890      47.86700000      -0.47379542       0.95257869      -0.69479967      -0.47379542       0.95257869      -0.69479967 
Ti      -4.29867917       0.30685893       3.06953071       2.74920070      -0.32650417      -2.82219412      47.86700000      -1.34491576       0.14960314      -0.73983693      -1.34491576       0.14960314      -0.73983693 
Ti       3.42352311       4.93379825       0.44645249       3.74630066       2.29771368       5.92406226      47.86700000       0.31159305      -0.40923901       0.06474136       0.31159305      -0.40923901       0.06474136 
Ti      -2.45163918       2.82997033       3.13840598       9.83660002      -2.53204507       0.18303501      47.86700000      -2.42826791       0.23245720      -1.15148685      -2.42826791       0.23245720      -1.15148685 
Ti      -1.03409365       5.23465506       5.67907674      -5.50109713       6.50343795       4.42146565      47.86700000       0.93526928      -2.44911210      -1.28302505       0.93526928      -2.44911210      -1.28302505 
Ti      -1.93642637       7.58158002       5.05878414      -7.12099344      -3.15242633       5.02155556      47.86700000      -3.25030952       0.37943691       0.00941244      -3.25030952       0.37943691       0.00941244 
Ti       3.24618250       2.31676702       5.35868838      -2.64887269       1.90512075      -0.98563386      47.86700000       3.83873778      -0.05434687       0.63731884       3.83873778      -0.05434687       0.63731884 
Ti       4.43303322       1.12568731       7.62003621       0.82015080       2.88368780      -2.31184122      47.86700000      -0.05524164      -0.44710660      -0.08811740      -0.05524164      -0.44710660      -0.08811740 
Ti      -2.94693595      -2.80316099       2.65946205       4.28306892       0.87428702       0.82293475      47.86700000       0.24293582      -0.68576938      -0.50089590       0.24293582      -0.68576938      -0.50089590 
Ti       0.47651673       4.12176872       7.29477725      -6.92811630      -6.27712985      -0.14355270      47.86700000      -0.11796099      -0.80580888       1.38212207      -0.11796099      -0.80580888       1.38212207 
Ti       2.28050712       4.57276711       5.23960658       4.20434551       1.14701917      -2.66076442      47.86700000      -0.11384599       1.44030305      -0.46107251      -0.11384599       1.44030305      -0.46107251 
Ti       3.29994230       4.02612813       7.68106887      -2.69492317       0.53171760       0.09612919      47.86700000      -0.01369119      -1.30369891       1.15831266      -0.01369119      -1.30369891       1.15831266 
