16
Lattice="5.9 0.0 0.0 -2.95 5.109549882328188 0.0 0.0 0.0 9.369200000000001" Properties=species:S:1:pos:R:3:momenta:R:3:masses:R:1:force:R:3:forces:R:3 energy=-91.1365132576 config_type=HMD_iter17 pbc="T T T"
Ti      -0.74989013      -0.53889389       0.55476141      -4.59815493       2.60870397       1.73530585      47.86700000       0.73114624      -0.75261543      -1.61878133       0.73114624      -0.75261543      -1.61878133 
Ti      -0.63196486       1.38680422       2.89375253       5.89281532       1.79370881       2.11747676      47.86700000      -0.03104238      -0.15866681      -1.62560634      -0.03104238      -0.15866681      -1.62560634 
Ti       2.54419587      -1.48641346      -0.56694156      -2.20420583       0.57063878       2.29068122      47.86700000      -0.57160721       1.21491763       0.98719338      -0.57160721       1.21491763       0.98719338 
Ti       2.64810435       2.18923273       2.72147806       0.74306083      -1.10970782       0.62841701      47.86700000      -0.54324265      -0.46686917      -1.26039514      -0.54324265      -0.46686917      -1.26039514 
Ti      -2.07869198       1.43753188       0.32336554       4.84663845      -7.90230737      -0.74256342      47.86700000      -0.13469824      -0.18790020       0.02029035      -0.13469824      -0.18790020       0.02029035 
Ti      -5.57023846       3.99300684       2.24405435       0.00840196       1.96465326       1.54765691      47.86700000       4.61159421      -1.40965964       0.82123636       4.61159421      -1.40965964       0.82123636 
Ti       1.11649154       1.48072026      -0.11580718       1.32725902      -2.13167991       0.54486403      47.86700000      -0.38351344      -0.08065899       0.65691673      -0.38351344      -0.08065899       0.65691673 
Ti      -1.75375960       4.60794713       1.82841831      -5.02703357      -7.90086165       4.25890315      47.86700000      -3.32230454       1.14365223       0.40302958      -3.32230454       1.14365223       0.40302958 
Ti      -3.35198850       4.52414842       4.35283573      -0.77018451       5.87119652      -1.36541895      47.86700000       0.59558468       0.83079026       0.76876246       0.59558468       0.83079026       0.76876246 
Ti       5.69658145      -2.29262968       7.54918528      -3.38422714       5.56329041      -1.79779291      47.86700000       0.54043438       0.96182232      -0.75946064       0.54043438       0.96182232      -0.75946064 
Ti      -0.04812164       4.77805267       4.53120287       1.73046058       6.64205790       2.88881315      47.86700000      -0.76447804       1.71466309      -0.35640017      -0.76447804       1.71466309      -0.35640017 
Ti       8.87476060      -1.99526264       6.60755958       2.81376061       5.10667261       1.20056924      47.86700000      -0.66270152      -0.41317980       1.19596017      -0.66270152      -0.41317980       1.19596017 
Ti      -4.51264586       7.81097391       4.79970827       1.71392320      -7.32659769      -6.12778206      47.86700000      -0.94758353      -1.26789801       0.65175543      -0.94758353      -1.26789801       0.65175543 
Ti       4.06192193       0.46776186       6.98835474      -4.70767301       1.52014033       3.66512545      47.86700000       0.76547916       0.36562260       0.37304561       0.76547916       0.36562260       0.37304561 
Ti      -1.54617850       7.40115613       4.62098163      -0.26350041      -6.35766943      -2.00964234      47.86700000       0.04681366      -1.21470310       0.40124701       0.04681366      -1.21470310       0.40124701 
Ti       7.10142378       0.29952949       6.88229043       1.87865943       1.08776128      -8.83461310      47.86700000       0.07011921      -0.27931699      -0.65879346       0.07011921      -0.27931699      -0.65879346 
