16
Lattice="5.9 0.0 0.0 -2.95 5.109549882328188 0.0 0.0 0.0 9.369200000000001" Properties=species:S:1:pos:R:3:momenta:R:3:masses:R:1:force:R:3:forces:R:3 energy=-90.1675791605 config_type=HMD_iter4 pbc="T T T"
Ti       1.33993567      -4.08337130       0.19580765      -4.72303144       0.72267762      -6.50555792      47.86700000       0.52626488       1.70969856      -0.23994844       0.52626488       1.70969856      -0.23994844 
Ti       1.61310569       0.62674068       2.32562236      -9.00925865       2.06437232       7.46796783      47.86700000       1.96943622      -0.23219501       0.65823965       1.96943622      -0.23219501       0.65823965 
Ti       4.73279452      -3.88229971       0.14214141       0.52147668       2.61597126       1.24449853      47.86700000      -2.95456277       5.50582083      -0.29891879      -2.95456277       5.50582083      -0.29891879 
Ti       4.89120119       0.51610670       2.69952683       2.94085988      -4.77517476       1.78207391      47.86700000      -0.96467832       0.86729058       0.51495662      -0.96467832       0.86729058       0.51495662 
Ti      -0.02367560      -0.80159774      -0.24320585       2.62596234      -3.43085417      -3.90613335      47.86700000      -0.82159669      -1.09756550       0.29282772      -0.82159669      -1.09756550       0.29282772 
Ti       0.83045301       3.51396382       2.01744980       0.94946656       1.00039949      -0.68144523      47.86700000       0.25287050      -1.68598692       0.15854924       0.25287050      -1.68598692       0.15854924 
Ti       2.73058017      -0.76792323      -0.08031417      -2.33233794      -1.28106224       1.99606848      47.86700000       1.39494899      -4.99357782      -0.44937390       1.39494899      -4.99357782      -0.44937390 
Ti       3.55595074       3.24806468       1.90233910       6.28920460       2.68400866       5.78215235      47.86700000       0.12723390      -0.79910044       1.50474697       0.12723390      -0.79910044       1.50474697 
Ti      -1.55880288       2.24789173       5.02470191       4.42648486      -0.74708456      -2.82116911      47.86700000      -0.83818295      -1.39436055      -0.26042470      -0.83818295      -1.39436055      -0.26042470 
Ti       1.16972857       4.79339876       7.21641349      -1.72769010      -1.78022541      -1.98400422      47.86700000       0.58498723       0.70276004      -1.33597821       0.58498723       0.70276004      -1.33597821 
Ti       1.17758858       1.17173769       4.65812227       1.77537246      -4.31398470      -1.31926798      47.86700000      -0.04910888       1.72178556       0.37876358      -0.04910888       1.72178556       0.37876358 
Ti       4.35591220       4.95729152       6.80550938       7.33721431      -0.39964242      -5.29037723      47.86700000      -0.53670615      -1.68682574       0.04260630      -0.53670615      -1.68682574       0.04260630 
Ti      -3.43992664       4.02011117       4.81151382       0.81711695      -1.39082354       1.57582279      47.86700000       0.36492017      -0.00161353      -0.71650764       0.36492017      -0.00161353      -0.71650764 
Ti      -6.25966765       7.28207661       7.36880645      -1.92593717       0.77264913       4.84366480      47.86700000       1.24174746       0.84023360      -1.59327811       1.24174746       0.84023360      -1.59327811 
Ti      -0.20125499       3.95427664       4.27299859      -4.89761121       4.92126213      -2.18262561      47.86700000      -0.35794851      -0.03262988       0.92939174      -0.35794851      -0.03262988       0.92939174 
Ti      -3.11392258       7.26719788       7.09776694      -3.06729212       3.33751119      -0.00166804      47.86700000       0.06037492       0.57626622       0.41434797       0.06037492       0.57626622       0.41434797 
