16
Lattice="5.9 0.0 0.0 -2.95 5.109549882328188 0.0 0.0 0.0 9.369200000000001" Properties=species:S:1:pos:R:3:momenta:R:3:masses:R:1:force:R:3:forces:R:3 energy=-89.9093455493 config_type=HMD_iter19 pbc="T T T"
Ti       4.00264656       0.12923649      -0.42471500       0.28849706       6.30876879       3.39551975      47.86700000       0.75225369       0.48461419       0.61116749       0.75225369       0.48461419       0.61116749 
Ti      -1.87732635       1.58447351       2.06998892       1.39821123      -1.07947977      -1.17874891      47.86700000       1.80376812       3.38301817       0.43924291       1.80376812       3.38301817       0.43924291 
Ti       6.97111728       0.17855548       0.31271132      -4.03105250       1.08106424       1.75389546      47.86700000      -1.29360371      -0.63431364      -0.31565155      -1.29360371      -0.63431364      -0.31565155 
Ti       1.00365846       1.88884948       2.33199905       5.27953159     -12.22305681       1.55112915      47.86700000       0.71086773       0.70414602      -0.37308339       0.71086773       0.70414602      -0.37308339 
Ti      -0.46909934       2.64456531      -0.14723256       0.08017082       5.57378629      -2.91145853      47.86700000      -1.32052165       0.41828962       0.44974813      -1.32052165       0.41828962       0.44974813 
Ti      -2.87683029       4.24800326       2.19252953      -5.56980847      -5.59994122       2.11319945      47.86700000       0.21515341       0.17533747       0.85397948       0.21515341       0.17533747       0.85397948 
Ti       1.98806829       2.41713832       0.27048049       2.81786592       4.27104625      -3.56266028      47.86700000       1.35775675       0.74675424      -0.32554804       1.35775675       0.74675424      -0.32554804 
Ti       0.15683827       4.68298578       1.83756220       2.22867610       3.19849359       1.88509234      47.86700000      -1.99912454      -4.22628258       1.81137232      -1.99912454      -4.22628258       1.81137232 
Ti      -2.52986316      -0.58882657       4.97345197       2.98053449       2.24319452      -2.40723530      47.86700000       4.06716340      -0.19410814      -2.09896779       4.06716340      -0.19410814      -2.09896779 
Ti       0.86233255       3.34096027       7.27377416      -1.72680396       5.17909741      -2.89804618      47.86700000      -1.76693398      -0.76936979      -0.74949671      -1.76693398      -0.76936979      -0.74949671 
Ti       1.16857481      -0.70000794       5.38909793      -6.33092343       2.86526259      -0.69001849      47.86700000      -2.48076603      -1.39649174      -0.92915562      -2.48076603      -1.39649174      -0.92915562 
Ti       4.84780750       1.64387084       6.67397373      -0.82704843      -0.18403505       0.92741146      47.86700000      -0.51418201      -1.39562178      -0.44843447      -0.51418201      -1.39562178      -0.44843447 
Ti      -3.45501754       1.87422629       4.53495010       0.30880252      -5.06857257       2.99062342      47.86700000       0.24945158       0.85498156       1.02660769       0.24945158       0.85498156       1.02660769 
Ti      -0.73311747       5.79092096       7.22525272       0.65727259      -2.25760351      -1.45246285      47.86700000      -0.46243827       0.77300792      -0.59693351      -0.46243827       0.77300792      -0.59693351 
Ti      -0.32638969       1.15323896       4.26173486       1.37436277       1.88250925       1.05617214      47.86700000      -1.26773964       0.80075231       0.49468486      -1.26773964       0.80075231       0.49468486 
Ti       3.06660011       3.77547543       7.43964055       1.07171170      -6.19053399      -0.57241262      47.86700000       1.94889516       0.27528616       0.15046821       1.94889516       0.27528616       0.15046821 
