16
Lattice="5.9 0.0 0.0 -2.95 5.109549882328188 0.0 0.0 0.0 9.369200000000001" Properties=species:S:1:pos:R:3:momenta:R:3:masses:R:1:force:R:3:forces:R:3 energy=-91.1928803678 config_type=HMD_iter13 pbc="T T T"
Ti      -0.26106761      -0.96490367       0.24902145      -0.13794696      -1.10317523       3.73873804      47.86700000      -0.97605802       2.45673452      -0.46757196      -0.97605802       2.45673452      -0.46757196 
Ti       1.32024694       3.77657192       2.15855759       1.29707611       3.31322084       3.82588222      47.86700000       1.53223730       0.64199135       0.41672687       1.53223730       0.64199135       0.41672687 
Ti       2.35682163      -0.20553469       0.33599343       1.34853298       3.28702657      -7.38700548      47.86700000      -0.12922700       0.68594949      -0.15770387      -0.12922700       0.68594949      -0.15770387 
Ti       3.39514871       6.63138550       2.14330689      -0.73560468       0.99432360      -4.99956989      47.86700000      -1.08842321      -0.88137288      -0.30082993      -1.08842321      -0.88137288      -0.30082993 
Ti      -2.07681995       2.19739552      -0.11189890      -6.28763218      -2.07220568       5.17633942      47.86700000       0.64054564      -1.56042063       0.49165825       0.64054564      -1.56042063       0.49165825 
Ti       0.24913247       6.74250754       2.26293757       1.74391823      -1.71246858       4.35911900      47.86700000      -0.14954052      -0.67734140       0.18194339      -0.14954052      -0.67734140       0.18194339 
Ti       0.64155346       2.61843633       0.07027513       2.09507832      -5.94363121       0.72880901      47.86700000       0.87440483      -2.40301675       0.85083713       0.87440483      -2.40301675       0.85083713 
Ti       1.68410021       8.95890893       2.30928108       3.05878888       2.53110626      -0.32250701      47.86700000      -0.57362731       0.97810178      -0.60309433      -0.57362731       0.97810178      -0.60309433 
Ti       3.13792731       2.89208042       4.58562880      -4.48628503      -2.26975230      -3.28129347      47.86700000      -1.45318863      -0.11226299       0.67527490      -1.45318863      -0.11226299       0.67527490 
Ti      -3.43729316      -4.66454652       6.91749613       4.12100932       2.73487730      -3.11511950      47.86700000       0.69316210       1.54302975       0.97941909       0.69316210       1.54302975       0.97941909 
Ti       5.72092649       2.99054158       4.52348736       1.91285721       2.88125144       2.01476154      47.86700000       0.31102330      -0.97599110       0.57804682       0.31102330      -0.97599110       0.57804682 
Ti      -0.45662304      -3.99738847       7.32463226       4.12583399      -1.19732436       2.57442659      47.86700000      -0.38405096      -0.42820195      -1.91028327      -0.38405096      -0.42820195      -1.91028327 
Ti       1.33497788       5.48456506       4.52008176      -4.25598317       3.93673310      -3.71995300      47.86700000      -0.19165858      -0.23241971       0.45248198      -0.19165858      -0.23241971       0.45248198 
Ti      -4.14018662      -1.71182154       7.25081519      -3.87861101      -7.09654231      -0.74668653      47.86700000      -1.47670497       0.46433737      -1.14753625      -1.47670497       0.46433737      -1.14753625 
Ti       3.98087115       5.31535378       4.80999332       6.86905999      -1.17223885       1.45400523      47.86700000       1.40277702       1.06549500       0.13631019       1.40277702       1.06549500       0.13631019 
Ti      -1.64971588      -1.99988581       6.86559094      -6.79009199       2.88879940      -0.29994617      47.86700000       0.96832902      -0.56461187      -0.17567899       0.96832902      -0.56461187      -0.17567899 
