16
Lattice="5.9 0.0 0.0 -2.95 5.109549882328188 0.0 0.0 0.0 9.369200000000001" Properties=species:S:1:pos:R:3:momenta:R:3:masses:R:1:force:R:3:forces:R:3 energy=-90.6367106641 config_type=HMD_iter7 pbc="T T T"
Ti       1.54791418      -1.88808613      -0.30379286      -5.98148147       4.44545019      -0.56474767      47.86700000       1.14314475       0.37985897       1.21507740       1.14314475       0.37985897       1.21507740 
Ti      -2.31673572       2.28092769       2.41443523       5.67752641      -1.16155124      -5.67619873      47.86700000       1.24369098       0.55672767       0.09916516       1.24369098       0.55672767       0.09916516 
Ti       4.94042238      -2.39500398       0.14170203      -4.90440728       2.05036465       3.87265536      47.86700000      -1.32697848       0.36338157      -0.16746905      -1.32697848       0.36338157      -0.16746905 
Ti      -0.78397791       5.48936546       1.68718488       4.89650690       0.18992638       4.19784789      47.86700000      -2.15568904      -1.48471766       2.45923964      -2.15568904      -1.48471766       2.45923964 
Ti       0.52777122       0.21944310      -0.54904816      -4.97057366      -1.72102006      -7.49142563      47.86700000       0.62569744       0.18666878       1.39451656       0.62569744       0.18666878       1.39451656 
Ti      -3.72852124       4.78169866       2.93242682      -0.09828929      -3.47252798       2.09685172      47.86700000      -1.28938614       0.14048735      -2.88086092      -1.28938614       0.14048735      -2.88086092 
Ti       3.60204604       0.35828081      -0.06753069       3.06123554       1.94130907       7.92223884      47.86700000       0.42263489       0.29830195       0.44278573       0.42263489       0.29830195       0.44278573 
Ti      -3.00386687       7.65190605       2.24188399       2.61097490       3.14844846       0.14452809      47.86700000       1.46934768       0.11130056       0.24612866       1.46934768       0.11130056       0.24612866 
Ti      -0.77499406      -2.14135881       4.66781122      -2.19435297       5.35662000      -3.73296409      47.86700000      -0.98932259      -0.88446941      -0.15209388      -0.98932259      -0.88446941      -0.15209388 
Ti       0.63252822       4.11428047       6.87839808       1.52279166      -0.72311374       2.59964405      47.86700000      -1.39499888       0.24772337       0.58431975      -1.39499888       0.24772337       0.58431975 
Ti       2.17968005      -2.22984666       5.34941219       1.57797875      -0.83776035      -0.87393197      47.86700000      -0.29956784      -0.50250690      -2.51206312      -0.29956784      -0.50250690      -2.51206312 
Ti       3.14315549       4.01469015       6.94060506      -0.11069262      -3.51040301       1.59604683      47.86700000       1.85042816       0.77805451       0.81332019       1.85042816       0.77805451       0.81332019 
Ti      -2.22806991       0.14896196       4.86596336       5.16309745      -6.00221958      -1.86615126      47.86700000      -0.45177546       0.33508582      -0.09795137      -0.45177546       0.33508582      -0.09795137 
Ti       2.26031844       6.74977030       7.26243425      -1.42399850      -2.02689660      -1.89347782      47.86700000       0.05299747      -0.61370578      -1.04218727       0.05299747      -0.61370578      -1.04218727 
Ti       0.56161918       0.09036493       4.70342125       1.17553204      -0.92682556       1.40438499      47.86700000       1.59055337       1.33779574       0.06369467       1.59055337       1.33779574       0.06369467 
Ti       5.24071052       6.81827189       7.04989334      -6.00184787       3.25019937      -1.73530060      47.86700000      -0.49077632      -1.24998654      -0.46562217      -0.49077632      -1.24998654      -0.46562217 
