16
Lattice="5.9 0.0 0.0 -2.95 5.109549882328188 0.0 0.0 0.0 9.369200000000001" Properties=species:S:1:pos:R:3:momenta:R:3:masses:R:1:force:R:3:forces:R:3 energy=-90.6075807285 config_type=HMD_iter5 pbc="T T T"
Ti      -1.29179270       1.31595652      -0.47352050       3.37363787      -4.32131433      -6.33922071      47.86700000       0.41047033      -0.49573452       1.55528911       0.41047033      -0.49573452       1.55528911 
Ti      -4.25697706       4.32507377       2.60833532       1.42201255      -0.02359223      -1.62080415      47.86700000       0.10246118      -0.78286893      -0.63557606       0.10246118      -0.78286893      -0.63557606 
Ti       0.96498673       1.95333445      -0.17284154       1.32935998       3.48822408       4.15250256      47.86700000       1.55871485      -2.04373473       0.11259379       1.55871485      -2.04373473       0.11259379 
Ti      -1.18008244       3.98295817       2.70294650      -0.28609704      -0.39549861      -0.11389919      47.86700000      -1.07351242       1.36701885      -0.54373236      -1.07351242       1.36701885      -0.54373236 
Ti      -2.44401889       3.70677316       0.17091898      -0.97609673      -1.53331892       3.02890226      47.86700000      -1.60320368       1.33150977      -0.00810727      -1.60320368       1.33150977      -0.00810727 
Ti     -11.69238462       6.73991682       1.94050307       0.05987453      -0.27488054       2.87385279      47.86700000      -0.17596216      -0.39655425       0.67927129      -0.17596216      -0.39655425       0.67927129 
Ti      -0.00519842       4.30462179      -0.04029517      -3.10869165      -0.48378845       2.36963304      47.86700000       0.03576804       0.90153321       1.13240958       0.03576804       0.90153321       1.13240958 
Ti      -8.75684245       6.84579642       2.21474891       0.19312947      -1.20053331       2.16579124      47.86700000       0.18867231      -0.65306645       0.26174442       0.18867231      -0.65306645       0.26174442 
Ti       0.26852244      -1.55485880       5.24645772      -0.69639618       0.38794049      -0.49817160      47.86700000      -0.15692322       0.31517671      -2.11236098      -0.15692322       0.31517671      -2.11236098 
Ti       7.92408374      -1.80669750       7.04691224      -6.14077409      -1.38395469       0.59491496      47.86700000      -0.82722275      -0.35452445       0.06491768      -0.82722275      -0.35452445       0.06491768 
Ti       4.69296380       1.09803443       4.86738749      -0.56598792      -6.06787185       2.22810424      47.86700000      -0.13123892      -0.89501014      -1.20037227      -0.13123892      -0.89501014      -1.20037227 
Ti      10.20153690      -2.01887103       6.94182905       0.77222025       1.86559830      -2.35068455      47.86700000       1.39662740      -0.55928247       0.96839299       1.39662740      -0.55928247       0.96839299 
Ti      -0.03479145       3.06795532       4.86595812      -3.55619695       0.62616496      -4.33160134      47.86700000       1.44425179       2.19822965      -0.14430246       1.44425179       2.19822965      -0.14430246 
Ti       5.95291669       0.45420564       7.01950747       1.58599202       7.20307604      -5.01243452      47.86700000       1.30548742       0.01209860       0.33103801       1.30548742       0.01209860       0.33103801 
Ti       2.01310494       1.21539421       4.52580362       4.20034584       1.07311049       3.25606711      47.86700000      -1.08511703      -1.24206105      -0.15529817      -1.08511703      -1.24206105      -0.15529817 
Ti       9.44397279       0.43407252       6.75054873       2.39366806       1.04063857      -0.40295215      47.86700000      -1.38927314       1.29727021      -0.30590730      -1.38927314       1.29727021      -0.30590730 
