16
Lattice="5.9 0.0 0.0 -2.95 5.109549882328188 0.0 0.0 0.0 9.369200000000001" Properties=species:S:1:pos:R:3:momenta:R:3:masses:R:1:force:R:3:forces:R:3 energy=-89.8673011544 config_type=HMD_iter15 pbc="T T T"
Ti       0.96458485       2.24724652       0.33627656       4.57793478       0.86156494      -0.06310186      47.86700000      -0.82270677       0.22655663      -0.66241191      -0.82270677       0.22655663      -0.66241191 
Ti      -3.11188587       2.87795818       2.18532342     -12.20883217      -3.96419651      -8.15109189      47.86700000      -0.63559069      -0.77680074       1.25779193      -0.63559069      -0.77680074       1.25779193 
Ti       3.42793721       1.64903822      -0.24240331       7.30576872      -0.05517694       1.23517200      47.86700000       1.03049285       1.53531287      -0.45852495       1.03049285       1.53531287      -0.45852495 
Ti      -0.47292489       2.20574996       2.53728572       1.64553973       4.21852550      -0.36134210      47.86700000       3.11353433      -1.34320107      -2.73233325       3.11353433      -1.34320107      -2.73233325 
Ti      -3.38281966       4.75620714       0.16893972      -0.97593578       2.93564301       1.87975323      47.86700000      -0.09713463      -0.30567389       0.61292197      -0.09713463      -0.30567389       0.61292197 
Ti      -4.82567997       5.43816357       2.13666423      -0.03040113      -3.32372978       1.12907565      47.86700000      -0.11951930      -1.24669512       0.55540446      -0.11951930      -1.24669512       0.55540446 
Ti      -0.70059893       4.71116495      -0.39685394      -5.61323594       3.39405424       0.32178860      47.86700000       0.37957453      -0.76859462       0.11057469       0.37957453      -0.76859462       0.11057469 
Ti      -1.52514838       4.78840999       2.20461460       0.83839807      -3.19296421       5.48734975      47.86700000      -0.33561528       1.40018384      -0.05906526      -0.33561528       1.40018384      -0.05906526 
Ti       2.33729655       0.51018882       4.35000711      -2.81812114       0.56796829       0.94595581      47.86700000      -0.00993417      -0.20668480       0.44108306      -0.00993417      -0.20668480       0.44108306 
Ti       1.48257968      -1.58245523       6.58179740       2.52703364       1.60680297      -7.91743428      47.86700000       0.96581994       0.63297804       1.19918175       0.96581994       0.63297804       1.19918175 
Ti       5.41164208       0.04359757       5.62160856       4.67268778       2.32067697      -0.78045097      47.86700000       0.01170974       1.16645280      -7.45534398       0.01170974       1.16645280      -7.45534398 
Ti       4.63210762      -1.29095293       7.21390572      -3.19454596      -0.83621935       0.89608434      47.86700000      -2.45957416      -1.81999977       3.24445456      -2.45957416      -1.81999977       3.24445456 
Ti       0.90506137       2.24684796       4.97090942      -1.27073615      -0.28154953      12.23584973      47.86700000       0.57650389       1.09839593      -0.31036116       0.57650389       1.09839593      -0.31036116 
Ti      -0.20958676       1.20945758       7.51618506      -2.03685170       0.08850262      -1.78647818      47.86700000       1.36218073       0.99965049       1.45593618       1.36218073       0.99965049       1.45593618 
Ti       4.06580259       2.94733121       4.13244060       1.24984863      -3.81725218      -1.59805784      47.86700000      -3.02999258       0.58829651       2.46455506      -3.02999258       0.58829651       2.46455506 
Ti       2.80163250       1.30571236       6.89849913       5.33144861      -0.52265002      -3.47307200      47.86700000       0.07025158      -1.18017709       0.33613686       0.07025158      -1.18017709       0.33613686 
