16
Lattice="5.9 0.0 0.0 -2.95 5.109549882328188 0.0 0.0 0.0 9.369200000000001" Properties=species:S:1:pos:R:3:momenta:R:3:masses:R:1:force:R:3:forces:R:3 energy=-90.1296289921 config_type=HMD_iter6 pbc="T T T"
Ti       2.51077947      -5.94204012       0.28801958       4.83879790      -0.95515189       1.39068215      47.86700000      -0.28815168       0.10081817      -0.83072331      -0.28815168       0.10081817      -0.83072331 
Ti      -2.88932498       1.51427883       2.37571788      -0.64215745       3.33526609      -2.39733335      47.86700000       0.56219304      -1.29099466      -0.91342426       0.56219304      -1.29099466      -0.91342426 
Ti       3.67477190      -3.47221526      -0.20208141       0.30784871      -0.42905272       1.58611338      47.86700000       1.51526526       0.02060164      -5.68831338       1.51526526       0.02060164      -5.68831338 
Ti       0.33917573       1.59786036       1.96747360      -3.23755603      -3.66881910      -8.88223247      47.86700000      -4.56444899      -4.76144010       4.64694649      -4.56444899      -4.76144010       4.64694649 
Ti       0.59798736      -3.51001910      -0.28380763      -1.95422049       2.33479971      -1.16557915      47.86700000       1.52116984      -0.01508682       0.22515125       1.52116984      -0.01508682       0.22515125 
Ti      -4.73778097       3.64899572       2.19284672      -3.93432439      -2.25293985      -2.23031312      47.86700000       1.87914774       4.53464253       1.16591104       1.87914774       4.53464253       1.16591104 
Ti       2.44136248      -1.03556499       0.26897877      -1.19654253       2.04017957      -1.19028051      47.86700000       0.13367613       0.26907720       2.90683171       0.13367613       0.26907720       2.90683171 
Ti      -1.88392526       3.86301151       2.73609345       5.69820949       4.49327242       0.17159881      47.86700000       0.82522288       0.49881386      -0.46107188       0.82522288       0.49881386      -0.46107188 
Ti      -2.55184850       5.06140257       5.13084895      -0.56050051      -4.45303920       5.66149983      47.86700000      -7.60340751      -1.32023183      -0.13785002      -7.60340751      -1.32023183      -0.13785002 
Ti       6.10215476       2.04262232       6.48841175       7.50413872       2.55051519      -2.14845525      47.86700000      -1.03145542       0.85981558       1.82530036      -1.03145542       0.85981558       1.82530036 
Ti      -0.38265769       4.89605212       5.05376126      -5.25532437      -2.10585296       1.89977329      47.86700000       6.88223047      -1.36928460      -1.29504650       6.88223047      -1.36928460      -1.29504650 
Ti       8.62939213       2.12255540       6.71728461       5.67639966       3.39472449       6.99617563      47.86700000       0.29470840      -0.46703071       0.84454204       0.29470840      -0.46703071       0.84454204 
Ti      -7.42616927       7.32577422       4.19163629      -4.67207878      -8.22724334       1.89113342      47.86700000      -0.00276105       0.99553858       0.92896403      -0.00276105       0.99553858       0.92896403 
Ti       4.55528462       4.26845892       7.58025678      -0.35760681      -2.24269653      -1.91176640      47.86700000      -1.05712026       0.68831859      -3.08147012      -1.05712026       0.68831859      -3.08147012 
Ti      -4.77488870       6.97820461       4.90526685      -4.62464704       1.85090841      -1.80213722      47.86700000       1.81798330       0.89413156      -1.72179507       1.81798330       0.89413156      -1.72179507 
Ti       7.59568692       4.70428876       6.80449255       2.40956393       4.33512972       2.13112096      47.86700000      -0.88425216       0.36231101       1.58604760      -0.88425216       0.36231101       1.58604760 
