16
Lattice="5.9 0.0 0.0 -2.95 5.109549882328188 0.0 0.0 0.0 9.369200000000001" Properties=species:S:1:pos:R:3:momenta:R:3:masses:R:1:force:R:3:forces:R:3 energy=-72.773370569 config_type=HMD_iter8 pbc="T T T"
Ti      -0.12154514       0.95578170       0.18118550       3.47552578       2.55053533       1.58980637      47.86700000       0.79362029      -0.74928552       0.37049375       0.79362029      -0.74928552       0.37049375 
Ti      -0.36084623       2.48700329       2.41001858       0.55343778      10.69158058       0.20732094      47.86700000      -0.41778027       0.76275209      -0.83789223      -0.41778027       0.76275209      -0.83789223 
Ti       3.05908265       0.70899135      -0.14360918       0.99965149      -2.64927329       4.49227072      47.86700000      -1.00773543      -0.72298484       0.26647381      -1.00773543      -0.72298484       0.26647381 
Ti       2.56274203       2.22417536       2.23156043      -2.42424666      -2.81428574       4.25050388      47.86700000       0.18088818      -0.25260471       0.42243086       0.18088818      -0.25260471       0.42243086 
Ti      -1.98266897       3.40861440      -0.17601673      -3.29922707       1.59516735       0.48419095      47.86700000       2.42572184       0.36687026       0.02807627       2.42572184       0.36687026       0.02807627 
Ti      -1.29058771       4.65240923       2.49314906       0.63577199      -0.77808768      -0.94090265      47.86700000      -0.42942350      -0.14859653      -0.63529111      -0.42942350      -0.14859653      -0.63529111 
Ti       1.63496185       3.34561226      -0.37482657      -0.62848730      -3.60095923      -2.08228382      47.86700000      -1.32952537       0.16998881       1.01115734      -1.32952537       0.16998881       1.01115734 
Ti       1.40095600       4.88325013       2.51890341       2.37656352      -0.28716883      -4.56825073      47.86700000       0.42170180       0.56400649      -0.82673648       0.42170180       0.56400649      -0.82673648 
Ti       0.67816271      -2.29185087       4.49342382      -6.24068684      -0.90452440       1.38910935      47.86700000       0.35995004      -0.43388521       0.23552793       0.35995004      -0.43388521       0.23552793 
Ti      -0.16772824       2.21897526       7.29048144      -3.83386835      -0.47857622       2.71775799      47.86700000      -1.51148319       0.38977434      -0.72187379      -1.51148319       0.38977434      -0.72187379 
Ti       3.80946442      -1.53723620       4.31222006       2.48256546       4.48858510      -1.99819217      47.86700000      -0.13647590       0.25951686       0.09654749      -0.13647590       0.25951686       0.09654749 
Ti       2.65159910       2.27099059       7.00068553      -0.58625652      -5.19213215       0.93844148      47.86700000       0.46584977      -0.44789892      -0.64201631       0.46584977      -0.44789892      -0.64201631 
Ti       0.11977143       0.90575763       4.69642649      15.68938727      -2.43897351       2.75798771      47.86700000     -11.59691886       2.88298462      -5.17588482     -11.59691886       2.88298462      -5.17588482 
Ti      -2.02133588       4.80960288       7.33372045       2.32600293      -2.30154446      -4.43104695      47.86700000      -0.63248495      -1.18031146       2.44009343      -0.63248495      -1.18031146       2.44009343 
Ti       1.07084793       0.60762738       5.18278221     -18.70374929       3.41299827      -4.57876059      47.86700000      11.85149454      -3.10330076       3.72667154      11.85149454      -3.10330076       3.72667154 
Ti       0.75712406       4.41396149       6.76509549       7.17761582      -1.29334111      -0.22795248      47.86700000       0.56260102       1.64297448       0.24222230       0.56260102       1.64297448       0.24222230 
