16
Lattice="5.9 0.0 0.0 -2.95 5.109549882328188 0.0 0.0 0.0 9.369200000000001" Properties=species:S:1:pos:R:3:momenta:R:3:masses:R:1:force:R:3:forces:R:3 energy=-91.4309501557 config_type=HMD_iter10 pbc="T T T"
Ti      -2.85701268       0.40369284      -0.15802689       6.23801469      -7.49244531       1.09537510      47.86700000       0.68265165      -0.36208617       0.34288478       0.68265165      -0.36208617       0.34288478 
Ti      -1.36351229       5.32430007       2.11720292       2.74761528      -2.02173268      -2.13063324      47.86700000       0.89775410      -1.00811934       0.32451807       0.89775410      -1.00811934       0.32451807 
Ti      -0.22823391       0.34929036      -0.25827499       5.28527498      -1.74810702       6.15798240      47.86700000       1.70049686       1.20591984      -0.65919061       1.70049686       1.20591984      -0.65919061 
Ti       1.95674288       4.72820010       2.20568627       0.70734284      -0.46422430      -0.97548076      47.86700000      -1.46366769       0.93543189       0.29554408      -1.46366769       0.93543189       0.29554408 
Ti      -0.90451886       3.08716048      -0.05918564       3.48922807      -4.67823979      -2.27405278      47.86700000      -1.58756566       0.05089726       1.11774828      -1.58756566       0.05089726       1.11774828 
Ti      -2.31355836       7.94761493       2.17012543       4.67651262       7.39075888      -5.61889365      47.86700000      -0.76241453       0.33856924       1.31878791      -0.76241453       0.33856924       1.31878791 
Ti       2.16489708       2.88742701      -0.05593184      -0.58228782       4.77567837       1.75262531      47.86700000      -0.69890179      -0.19671607       0.89535565      -0.69890179      -0.19671607       0.89535565 
Ti       0.31326163       7.49516938       2.81539328      -4.58317899      -0.33728845       1.78369994      47.86700000       0.81745313      -0.20096040      -1.17074127       0.81745313      -0.20096040      -1.17074127 
Ti      -1.47615588      -1.10295166       4.68699305      -3.61160528      -2.11987076      -5.33981253      47.86700000       0.02331745      -0.63632034      -0.31254149       0.02331745      -0.63632034      -0.31254149 
Ti       3.22690036      -2.31764499       7.40288874      -0.82908012      -1.44545508      -0.92625210      47.86700000       0.01244845       1.08375982      -2.41124606       0.01244845       1.08375982      -2.41124606 
Ti       1.50000560      -0.75072896       4.25024875       2.61503521      -1.28214839      -0.35425505      47.86700000      -0.44316937      -1.27379866       0.88580437      -0.44316937      -1.27379866       0.88580437 
Ti       7.12967979       0.38034315       7.25207692      -0.44477457       8.48577568       3.31635760      47.86700000       0.01436790      -1.46728233      -0.20519337       0.01436790      -1.46728233      -0.20519337 
Ti      -3.31754985       1.25293667       5.15911008     -10.80768999      -8.58806374       0.09420507      47.86700000       1.17770808       0.61880348      -0.95413536       1.17770808       0.61880348      -0.95413536 
Ti       4.86046035       0.19118995       6.86141568       2.67584477       3.96297758       4.96747797      47.86700000      -0.28298104       0.21780372       1.00300395      -0.28298104       0.21780372       1.00300395 
Ti      -0.10711342       1.55495593       4.68082662      -7.62326228       5.80841409      -1.76562633      47.86700000      -0.60909386       0.29178309      -0.42273389      -0.60909386       0.29178309      -0.42273389 
Ti       3.21570755       2.63271062       7.14465161       0.04701060      -0.24602907       0.21728305      47.86700000       0.52159633       0.40231499      -0.04786506       0.52159633       0.40231499      -0.04786506 
