16
Lattice="5.9 0.0 0.0 -2.95 5.109549882328188 0.0 0.0 0.0 9.369200000000001" Properties=species:S:1:pos:R:3:momenta:R:3:masses:R:1:force:R:3:forces:R:3 energy=-91.59190711 config_type=HMD_iter18 pbc="T T T"
Ti      -1.08849817      -4.36092108       0.59412840       0.76659258      -1.51068595      -4.52118456      47.86700000       0.64850847      -1.40848526      -1.14846859       0.64850847      -1.40848526      -1.14846859 
Ti      -2.97291913      -0.18101055       2.41693818       1.26051640      -8.03498170      -3.27414340      47.86700000      -2.36620003      -1.14587383      -0.31835990      -2.36620003      -1.14587383      -0.31835990 
Ti       3.40015388      -2.04707790      -0.12318660      -1.01239856       3.90122346       3.05466352      47.86700000       0.61250538       0.97015796       0.38681738       0.61250538       0.97015796       0.38681738 
Ti      -0.46927206      -0.47741976       2.12327280       0.22485175      -4.02297754       0.94375458      47.86700000       1.61181876      -0.85712818       0.48904014       1.61181876      -0.85712818       0.48904014 
Ti       0.56813068      -2.41932090      -0.13321723      -1.60969000       5.20413669       5.32898580      47.86700000       0.16476988       2.30467029      -0.32725838       0.16476988       2.30467029      -0.32725838 
Ti      -5.49345111       1.94274612       2.35121017       1.62172461       0.51034469       2.86987224      47.86700000      -0.28817554       1.22967917       0.01805060      -0.28817554       1.22967917       0.01805060 
Ti       5.01822227       0.60239882      -0.05966135      -2.28896161       2.56249754       1.97930289      47.86700000      -0.26056834      -0.57410412       0.24723776      -0.26056834      -0.57410412       0.24723776 
Ti      -2.60807334       2.06441960       2.50825342      -2.62139085      -3.35903588       1.09488408      47.86700000       0.51531584       0.70154171      -0.61580486       0.51531584       0.70154171      -0.61580486 
Ti      -4.31436763       3.68612563       4.46083538       3.82203193       3.38227425     -13.14758941      47.86700000       0.58813051      -1.06664201       0.83117234       0.58813051      -1.06664201       0.83117234 
Ti       5.74682984       2.46951024       6.84542804      -3.94535481       6.51849036       0.61117636      47.86700000      -1.08217695      -0.11053285      -0.19313799      -1.08217695      -0.11053285      -0.19313799 
Ti      -1.23976830       3.36691690       4.51972239      -4.21364956      -3.09758427       0.10823771      47.86700000      -0.27228657       0.57836449       0.41875808      -0.27228657       0.57836449       0.41875808 
Ti      10.06848196       5.05259420       7.12291401       2.24927308       2.77626126       0.42931790      47.86700000       0.40297123      -0.95361419       0.61997539       0.40297123      -0.95361419       0.61997539 
Ti      -5.14472518       6.20218082       4.86270931       5.70355872      -1.31268535       3.11897411      47.86700000      -0.68103423      -0.51628880      -0.10410729      -0.68103423      -0.51628880      -0.10410729 
Ti       5.26191824       7.32030252       6.96041650      -1.37881816      -3.36625591       5.35136571      47.86700000       1.10099456       0.90586124      -0.04596398       1.10099456       0.90586124      -0.04596398 
Ti      -2.34926472       5.84855271       4.67016751      -1.95336374       0.94527920      -0.51145842      47.86700000       0.60961086       0.48431692      -0.17899726       0.60961086       0.48431692      -0.17899726 
Ti       7.41660278       4.99366851       7.09526906       3.37507821      -1.09630084      -3.43615912      47.86700000      -1.30418383      -0.54192256      -0.07895346      -1.30418383      -0.54192256      -0.07895346 
