54
Lattice="4.425 -7.66432482349 0.0 4.425 7.66432482349 0.0 0.0 0.0 14.4519894824" Properties=species:S:1:pos:R:3:momenta:R:3:masses:R:1:force:R:3:forces:R:3 energy=-320.335402847 config_type=img pbc="T T T"
Ti       0.87701450       0.71922652       1.88071817       1.60016406       2.38079205      -1.15046642      47.86700000      -0.20836414      -1.83072662      -0.52866934       0.69764337       1.27160458       0.42557791 
Ti       0.09309271       2.14363303       3.93663962      -1.63452404       0.14582606       3.47708271      47.86700000       0.14152482       1.18850091      -1.00222607      -0.07251256      -0.56631569       0.77095171 
Ti      -0.76109057       1.33910278       6.11569930      -3.56499286       0.79217575       8.46287298      47.86700000       1.40943852      -4.44007184      -0.94763562       0.58960530      -0.29212733      -0.44619483 
Ti       1.16070238       1.26301791       8.30939363      -0.23564728       1.55655962      -1.80037982      47.86700000       4.64883842       0.12657585      -3.02128313       1.36304637       0.15106605       0.64587559 
Ti       0.89256741      -1.17711476       9.01088624       3.02206450       2.26938582       0.44320438      47.86700000      -0.12249388      -0.52746907       1.00439488       0.18527592      -0.72333799      -0.14823402 
Ti       4.66859154       0.84639873      12.08603951       2.01130742       0.34359455       0.82280684      47.86700000      -0.41887976       1.20611865       0.27255249      -0.14878426      -0.02369897       0.80027070 
Ti       2.64197302       0.02719681      -0.49390955       0.68695758      -0.97206669      -0.27075826      47.86700000      -0.42672127       1.49125495       0.80434981       0.17443034      -0.49739045      -0.98803282 
Ti       1.78843611       4.28328100       2.65114978      -1.81297314       5.85377194       2.71285429      47.86700000       0.49866910      -1.69055267      -0.77715570      -0.15125991      -0.83671059       0.36437118 
Ti       1.62755711       2.33913973       5.76133189       3.68822613       6.64692213       2.75611679      47.86700000       0.48499066       0.14455328      -1.24269623       1.21458720      -0.66290875      -1.39318246 
Ti       1.38397245       4.41592134       7.09900135      -3.38812461      -1.00999763       0.51180334      47.86700000       0.30059288      -0.18042373       0.89471044       0.67897179      -0.28220039      -0.48037224 
Ti       3.18200490       2.45851395      10.41577989       5.09743912      -3.24389989       0.79924910      47.86700000      -0.45281176      -0.08900128      -0.53049411      -0.91526253      -0.68619048       0.77760040 
Ti       1.24737848       2.57341922      12.18656323      -0.09447997       1.31667911      -3.91425675      47.86700000       0.52085330      -0.59200261      -0.01780933       0.17746823      -0.60886098      -0.38497057 
Ti       2.90905544       3.00451936      -0.02239782      -6.09520359       2.85601831      -8.85286726      47.86700000       1.14455797      -0.63157755      -0.33540740       0.29124047      -0.48777404      -0.74779493 
Ti       4.71566058       3.82742300       2.19115668       0.82101290       2.51470857       0.90058746      47.86700000      -0.04374583       0.72908147       1.31365906       1.65998055      -0.25539912       0.15057322 
Ti       2.62952355       5.48259592       4.89706852      -1.22178984      -2.72277145       3.34157418      47.86700000       0.20691961      -0.66595768       0.09355229       0.37058759      -0.91363050       0.52030675 
Ti       3.24660308       6.44496310       7.17283226       2.41953063       3.83376788      -6.26390770      47.86700000       1.06421947       0.68747625       0.72979936      -0.19755429       0.01841945      -0.15479185 
Ti       3.04915271       4.99874615       9.51010195      -2.53640702      -2.50028582       1.79899152      47.86700000       0.18316486      -0.68596408       0.04558304      -0.34140135       1.22907442       0.45637911 
Ti       2.59432655       5.82692321      11.89816044      -3.52808011      -0.73689945      -0.77077667      47.86700000       1.08347273       0.31256030       0.44221314       0.02675438      -0.23872634      -0.06125166 
Ti       1.54305042      -2.46102834       0.13626517       5.03543452       0.39774593       1.09205889      47.86700000      -1.09156149       0.56635191      -0.19518472      -0.97006705      -0.04484682       0.20662279 
Ti       2.18019210      -1.10096124       2.91260287       2.57548659       0.70258251      -2.85992083      47.86700000       1.33974485      -0.43421742      -1.20589477       0.20253825      -0.23481070       0.35145196 
Ti      -0.01758864      -0.63003633       3.95033629      -1.90755340       3.18193650      -1.64480059      47.86700000      -0.86714751       0.08419107      -0.29439793      -1.04288862       0.12545993      -1.11680393 
Ti       1.46306256      -0.67305655       6.15926024       1.44586682       4.51531151       1.95566111      47.86700000       0.24661929      -0.93212780       0.48639708       0.35399779       0.58940533      -0.12311213 
Ti       2.71077074      -3.52416680       9.46880869       3.33175942      -1.35443158      -3.74343220      47.86700000      -5.40154677       1.36637369       0.57000260       0.05724160      -0.13020445       0.71141912 
Ti       2.48780190      -1.36205933      11.93553188      -0.40567017      -3.45687115      -3.01281746      47.86700000      -2.10646866      -0.30168658      -1.62206764      -0.31370953       1.64445705      -0.33448661 
Ti       4.71319045      -0.63571255       0.30924071       6.21403966       1.72226281      -6.49491826      47.86700000       0.18655641       1.15082815      -0.04036469       1.35569043      -0.27205298      -0.34222655 
Ti       3.58664265       1.50825325       1.83658661       0.87867889       1.44488411       4.53946640      47.86700000       0.41112376      -0.60957228       1.71062873      -0.43174065       1.36815623      -0.29913634 
Ti       3.61936034       0.35185336       4.91503147       3.45520729      -4.44887876      -1.72179634      47.86700000      -0.74765233       0.83724570      -0.68001992      -1.83096340       0.68675797      -0.56366245 
Ti       3.47322612       2.01407421       7.20854502      -2.01706867      -3.39214741      -2.34833120      47.86700000       0.10142366      -0.73984606       0.05522442      -0.10590108       0.46155738       0.45361029 
Ti       3.47573564      -0.22908378       9.40306887      -1.53639883       2.56661596       2.51290013      47.86700000      -0.40765712       0.06730732       0.36364030      -0.83474914      -0.37501924      -0.18285039 
Ti       6.71181596       1.65444612      11.46853663      -2.72396318      -0.51180464       4.86895019      47.86700000       0.77089902       0.19881131       1.66474262      -1.28641162      -1.52720201       0.35289085 
Ti       5.67502803       2.38765869       0.07899938       1.05891014      -0.04788118       2.28302686      47.86700000       0.09739289       0.00471286      -1.72427232      -0.47282377      -0.46756719       1.58072789 
Ti       6.86995254       1.66474400       1.88955934      -0.11890162       1.94687761       0.84004547      47.86700000       0.51587891       0.81694972      -0.10055326      -0.19165795       0.20433823       0.25593221 
Ti       4.58248992       3.26112852       5.09100485      -4.06386051       1.52628575       0.90348625      47.86700000      -0.82519753       1.06022006      -0.10236906       0.81224713      -0.39187695      -0.63464073 
Ti       4.39992796       4.11083248       7.77397923      -1.20839314      -2.80391310       0.25488381      47.86700000       1.19086692       0.47197729      -0.47990432       0.19903633       0.22470193       0.00418676 
Ti       5.41435301       1.60120453       8.94089257       4.83923809       4.79419788      -3.19682697      47.86700000       0.63808757       2.25575590       0.41532423      -0.13048716       0.49728484      -0.24693524 
Ti       5.02094927       4.09481952      11.84223347      -7.83188897      -4.82923431      -4.49615739      47.86700000      -0.04479717      -0.45199429       0.30134696      -0.19356431       1.14942223      -1.25822337 
Ti       4.57983041      -5.45860994       0.32215257       0.77728039       1.29148890      -4.28226628      47.86700000       0.46690746       0.70739794      -1.02488756       0.45071294      -0.39725709       0.31351958 
Ti       3.83361136      -2.84346665       1.18844939      -3.59234739       2.90555445       0.83711469      47.86700000      -1.01125426      -1.02136200       2.06090143      -0.32490725       0.62751471       0.55109147 
Ti       2.58101516      -3.60002455       4.09575947       0.82313695       4.61682537       1.01874257      47.86700000      -0.47984233       0.21628527       0.20500108      -1.31291876      -0.79496667       0.90735997 
Ti       3.04274431      -4.37140121       6.94296299       0.73827429      -3.63391722       1.16823745      47.86700000      -1.62542656       4.09330327       1.45818543      -0.73520757      -0.58830142       0.25549514 
Ti       3.77953349      -6.01006605       9.49339143       2.86233521      -2.67961718       4.10284704      47.86700000      -4.64166385      -0.54851371       2.08161924       0.28021510       0.80100292       0.48673722 
Ti       3.69529187      -3.67972138      13.04977924      -0.01774758      -0.81344231       0.39678553      47.86700000      -2.51993090      -0.59978893      -0.80345220       0.12463179      -0.69598115      -0.29213722 
Ti       5.78870328      -2.70343640      -0.48463147       1.78027629      -1.07380929       0.01795086      47.86700000       0.81173459      -0.55778188       0.17834813      -0.39601480       0.45975736       0.36428341 
Ti       6.03213816      -0.61186477       2.75227892      -6.37404616       1.99698957       1.46676406      47.86700000      -0.93707036      -1.03520834      -0.06075504      -0.79763369      -0.94998620      -0.53330663 
Ti       4.50617131      -2.17471609       4.54173337       3.35240749      -4.07812679       1.91407077      47.86700000      -0.75925247      -0.45004863       0.78452978      -0.17687579      -0.15619598      -1.09563422 
Ti       3.72596089      -1.63957107       7.60415486      -0.94592565      -3.86826581       2.60998612      47.86700000       0.08227846       0.38239663      -0.48848938       0.16928009       0.40154263       0.56591352 
Ti       4.84586650      -3.88722696       9.93844354       1.41146558      -1.28176332      -4.56007150      47.86700000       4.97270775       0.71314623       0.29250730       0.29618036      -0.20719794       1.28949224 
Ti       4.72624907      -1.69708939      11.97963686       1.56173458       0.12836341      -1.30950304      47.86700000       1.95636269      -0.83811735      -1.05572353       0.54826724       1.22704898      -1.02563955 
Ti       7.39172847       0.07602961      -0.32774257      -0.93147443      -4.82827232       1.03805282      47.86700000      -0.45507606      -0.17474200      -0.41108765      -0.68754668       0.14028684      -0.36396615 
Ti       7.75705904      -2.15145349       1.37909124       1.81398591       3.84660143       1.72973166      47.86700000       1.31000962       0.86788837       0.27463606      -0.19043746       0.87525322      -0.58537400 
Ti       6.01046686       1.36714065       4.27984272       2.17532119      -6.56329245      -2.27040292      47.86700000       0.74143389       0.66192632      -0.29007292       1.05942329       2.18271256       0.76522540 
Ti       5.67528035       0.22875549       6.49485998      -6.42683753      -1.73125301      -0.73298078      47.86700000      -0.97643235      -0.89366015       0.16878451      -1.26164507      -0.81680852      -0.77363338 
Ti       6.02097266      -0.52257053       9.41415792      -3.85330940      -2.92617523       3.18905698      47.86700000       0.23064498      -1.64951062       1.01352403       1.48912863      -0.26144814       0.07239253 
Ti       9.27589387      -0.17754951      12.57874444       2.59006745      -2.58570749       0.93067539      47.86700000      -1.18692069       0.16273451      -0.70328460       0.68674379      -0.94982976       0.17633538 
54
Lattice="4.425 -7.66432482349 0.0 4.425 7.66432482349 0.0 0.0 0.0 14.4519894824" Properties=species:S:1:pos:R:3:momenta:R:3:masses:R:1:force:R:3:forces:R:3 energy=-320.335402847 config_type=img pbc="T T T"
Ti       0.78989759       1.89336803       2.06505209      -0.26065513      -5.05736223      -1.39537875      47.86700000       0.16355380       1.29839829      -1.89345886       0.69764337       1.27160458       0.42557791 
Ti      -3.74402004       3.02612534       5.33405843      -6.32778529      -1.47261343      -4.03787007      47.86700000       1.30112580      -0.24270403      -1.28140768      -0.07251256      -0.56631569       0.77095171 
Ti       0.16364091      -1.15102366       7.25799020      -3.70030936       2.27121302      -0.44153721      47.86700000       1.15833419      -0.98868398      -3.42978137       0.58960530      -0.29212733      -0.44619483 
Ti       3.10749735       1.78205020       8.61681016       0.07324310       5.44140645      -1.04666196      47.86700000       3.14135117       0.39383293       0.78918360       1.36304637       0.15106605       0.64587559 
Ti      -0.60184765      -3.04782243       9.90197928      -1.15024616      -3.01855542       0.82739796      47.86700000       0.61696103      -0.61459654      -0.50311076       0.18527592      -0.72333799      -0.14823402 
Ti       2.63297049       0.84308097      11.38982539      -1.42661076      -0.99966715       1.02549099      47.86700000       0.57400335      -0.20431706      -0.31911429      -0.14878426      -0.02369897       0.80027070 
Ti       1.83617581      -0.13395332      -0.87031730       5.01902248      -0.30733334       1.40935443      47.86700000      -0.31194983      -0.23899473      -0.67910451       0.17443034      -0.49739045      -0.98803282 
Ti       3.61544847       3.80604213       1.85146198       5.19148993      -2.45823664      -0.20439808      47.86700000       1.00934674       0.39198952      -0.59584553      -0.15125991      -0.83671059       0.36437118 
Ti      -0.52478671       3.96758774       3.86583320      -1.49279022       2.10094518       1.40899798      47.86700000      -0.27527558      -1.47024351       1.05637180       1.21458720      -0.66290875      -1.39318246 
Ti       1.94314984       0.52116635       6.54741128      -1.44957847       1.01260441       0.62391617      47.86700000      -0.16799788       1.12624527      -0.40148976       0.67897179      -0.28220039      -0.48037224 
Ti       6.47587382       2.54512130       9.44453695      -1.13904195      -1.75582123      -3.89683504      47.86700000      -0.43421121       0.46358549      -0.24615110      -0.91526253      -0.68619048       0.77760040 
Ti       1.70764114       3.11130422      11.64783667      -5.13022894      -3.25028587       2.29478194      47.86700000       0.76403625       0.16774142      -1.17409098       0.17746823      -0.60886098      -0.38497057 
Ti       3.08197554       2.28728355      -0.28295024       0.49115160      -5.05239627      -4.64528118      47.86700000      -0.08362427      -0.51209928      -0.95494124       0.29124047      -0.48777404      -0.74779493 
Ti       6.09735004       5.03531802       2.80792786      -3.99390506       3.26603677       0.22991242      47.86700000      -0.14036553      -0.68185092      -2.09784419       1.65998055      -0.25539912       0.15057322 
Ti       3.09053328       5.43506244       4.10376106      -2.41310334       0.86080755      -1.33053497      47.86700000      -1.36223743       0.15518781       0.65883525       0.37058759      -0.91363050       0.52030675 
Ti       3.35186125       4.03430416       7.01902040      -1.25782977       1.35924785       2.37605904      47.86700000       0.39240436      -0.01409779      -0.35900330      -0.19755429       0.01841945      -0.15479185 
Ti       1.36473779       4.30471903       8.17864236      -0.09923941      -5.29130456      -1.69561818      47.86700000       0.41619913       0.53417804       1.11490594      -0.34140135       1.22907442       0.45637911 
Ti       2.54291282       6.03608534      11.41424608      -2.54215429      -3.23723335      -0.70969724      47.86700000       0.23357408      -0.68563623      -1.09536107       0.02675438      -0.23872634      -0.06125166 
Ti       0.35197773      -2.16423168      -0.17334889       5.00466656       0.28339928      -3.41045412      47.86700000       0.25266989      -1.09791527      -0.48056732      -0.97006705      -0.04484682       0.20662279 
Ti       2.11107763      -0.10216876       1.51740123       1.23419258       2.64388936       2.09168994      47.86700000      -0.39218379      -1.44773295       0.24155990       0.20253825      -0.23481070       0.35145196 
Ti       0.83976985       0.63436058       4.30307609       1.07047584      -1.36001983       2.85714918      47.86700000       0.86289295       0.71692307       0.28445884      -1.04288862       0.12545993      -1.11680393 
Ti       3.81694076      -1.17617656       7.61406793       8.14894076      -4.24211639       2.46735736      47.86700000       0.12924342      -0.07647667       0.46528917       0.35399779       0.58940533      -0.12311213 
Ti       2.18140200      -3.09143111      12.10232995       3.44842152       2.48162253       2.65161352      47.86700000       0.05610572      -1.16293188       0.30448559       0.05724160      -0.13020445       0.71141912 
Ti       0.67262024      -1.40153616      11.12267067       1.56031493       2.93903486      -3.44302573      47.86700000      -1.07129683       1.69972443       0.73293073      -0.31370953       1.64445705      -0.33448661 
Ti       4.64680534      -0.05458493       0.38421815      -6.10939901      -1.61692843      -2.40968289      47.86700000      -0.28237131      -1.23726340      -1.22309953       1.35569043      -0.27205298      -0.34222655 
Ti       3.85385771       1.57205299       2.34244523       2.78549614       1.20032361      -0.82803185      47.86700000       1.70712698       1.15076963       0.40910737      -0.43174065       1.36815623      -0.29913634 
Ti       4.46175724       0.56805058       5.23503806      -3.03924845       0.61040654      -1.02721548      47.86700000      -0.60046297       2.22716238      -0.78713021      -1.83096340       0.68675797      -0.56366245 
Ti       5.66732681       1.19128424       7.46968866      -0.63884775      -5.09661148      -2.20626780      47.86700000      -0.75298414       0.18281845       0.03015994      -0.10590108       0.46155738       0.45361029 
Ti       0.90842559       1.63471558       9.02190331       3.00879085       0.13237046      -1.32040062      47.86700000      -2.82141178      -1.23301390       0.90225136      -0.83474914      -0.37501924      -0.18285039 
Ti       5.77124172       0.16994373      12.73104965       7.23072510       1.79123620      -0.44825059      47.86700000      -1.17230263       0.67356649      -0.57325178      -1.28641162      -1.52720201       0.35289085 
Ti       6.15130421       2.38245376      -0.06004460      -5.43652155       1.45951158       0.83062683      47.86700000      -0.84022952       0.56073401      -0.31825390      -0.47282377      -0.46756719       1.58072789 
Ti       7.06803716       2.22832823       2.48398244       1.18835353       0.70432677      -1.75830697      47.86700000      -0.95781159       0.43998952       0.05010079      -0.19165795       0.20433823       0.25593221 
Ti       2.68896413       2.93047756       3.71699599       2.62078917      -4.78775281       3.71465650      47.86700000      -1.95256934      -0.04422374       3.04142320       0.81224713      -0.39187695      -0.63464073 
Ti       6.94763026       4.45062389       6.99410365       7.83010383      -1.57516185      -0.08177416      47.86700000      -0.69347574      -0.08670816       0.37083219       0.19903633       0.22470193       0.00418676 
Ti       7.73092539       2.05803311       6.97024790       3.59750211      -1.52723536      -0.31450609      47.86700000       1.62357840      -1.12324135       0.25321356      -0.13048716       0.49728484      -0.24693524 
Ti       5.04791315       2.63612988      11.69614446       5.17135005       1.23449082       0.07036280      47.86700000      -1.64455619      -0.25857169       0.34168271      -0.19356431       1.14942223      -1.25822337 
Ti       4.51795972      -4.82785537      -0.81424720      -1.36670774       1.11387305      -0.76085337      47.86700000      -0.03697603      -1.03462553       1.02947578       0.45071294      -0.39725709       0.31351958 
Ti       5.47836774      -2.42390067       2.11923630       0.98567792       5.72261845       1.48575735      47.86700000      -0.43828833      -0.74501515      -0.99382999      -0.32490725       0.62751471       0.55109147 
Ti       1.02678905      -2.11074774       4.89772146       3.48503483      -2.88355756       3.55422784      47.86700000       0.20022801       1.21737479       2.09445857      -1.31291876      -0.79496667       0.90735997 
Ti       5.19665127      -3.81179592       5.98966378      -3.28343179      -1.28627542       3.19819673      47.86700000       1.04425362      -0.97232565      -0.82693520      -0.73520757      -0.58830142       0.25549514 
Ti       3.34917506      -8.00221249       8.90832786       0.13075664       0.12434470       6.03058645      47.86700000      -3.38654648       1.40571924       3.62205248       0.28021510       0.80100292       0.48673722 
Ti       2.94197677      -2.98766085      14.99921594       4.61602817      -3.64488555       2.12129430      47.86700000       1.03837709       0.57560786       0.31202999       0.12463179      -0.69598115      -0.29213722 
Ti       6.41957320      -2.81069212      -0.77364385      -0.81337247       3.99722357      -3.17973054      47.86700000       0.10200968       0.49047026       2.19647267      -0.39601480       0.45975736       0.36428341 
Ti       6.12636392      -0.02390872       2.46469715       1.87366614       5.03684151      -0.33388160      47.86700000      -0.31626480      -0.40621681       1.23978339      -0.79763369      -0.94998620      -0.53330663 
Ti       3.82753705      -1.56204372       4.89431854       0.04164053       1.87487049      -0.34768265      47.86700000      -0.81620363      -1.37682369      -1.94999499      -0.17687579      -0.15619598      -1.09563422 
Ti       2.00140519      -1.51935012       9.02755373      -6.35083411      -1.14058064       4.49150471      47.86700000       0.97274880       0.07191664       0.95039004       0.16928009       0.40154263       0.56591352 
Ti       4.19676224      -3.44410372       9.92481823      -2.30806820       7.03363149      -2.36287251      47.86700000      -1.12430146       0.29308216       0.18129659       0.29618036      -0.20719794       1.28949224 
Ti       4.27210690      -2.30836515      12.50782282       2.99482086       7.21514848       2.76725137      47.86700000       0.24526611       1.90190657       0.05122154       0.54826724       1.22704898      -1.02563955 
Ti       7.67205788       0.00947754      -0.07777764       3.55571178      -2.46143797       1.88769043      47.86700000       0.55449808       0.18735879      -0.31239845      -0.68754668       0.14028684      -0.36396615 
Ti       8.40754066      -0.52024692       2.40945135      -3.10328363      -7.07922925      -2.12235738      47.86700000       0.36917134      -0.60899943      -0.24582883      -0.19043746       0.87525322      -0.58537400 
Ti       6.98689608       0.70114151       5.07322046      -5.01810693      -0.47386796      -0.28128394      47.86700000       0.68352292       0.26272124      -0.56037055       1.05942329       2.18271256       0.76522540 
Ti       6.18736972      -1.31944079       6.39126439      -4.94244449      -1.58787440       4.97761764      47.86700000       1.01723557       0.05525450       0.28384382      -1.26164507      -0.81680852      -0.77363338 
Ti       4.66779030      -0.27832966      10.02298035      -2.62304181       6.89396108      -2.96877106      47.86700000       1.19367680       0.01519660       0.22801824       1.48912863      -0.26144814       0.07239253 
Ti       7.99968864       1.47086510      11.44004388      -4.94158091       1.85895831      -6.38433190      47.86700000       0.25240301      -0.09414604       0.06653033       0.68674379      -0.94982976       0.17633538 
54
Lattice="4.425 -7.66432482349 0.0 4.425 7.66432482349 0.0 0.0 0.0 14.4519894824" Properties=species:S:1:pos:R:3:momenta:R:3:masses:R:1:force:R:3:forces:R:3 energy=-320.335402847 config_type=img pbc="T T T"
Ti       2.43408936      -0.78011570       0.55042573       6.12896853      -3.40514646      -1.34089446      47.86700000      -0.66593179       0.51257633       0.58070540       0.69764337       1.27160458       0.42557791 
Ti      -4.00763117       3.73471177       6.13265433       1.21055576      -3.88080990      -0.26532405      47.86700000       0.15841525      -0.65240675      -1.08921726      -0.07251256      -0.56631569       0.77095171 
Ti      -1.39277086      -2.05178510       5.84773782      -2.51644915       1.67739377      -1.98876376      47.86700000       0.57891582       0.71970799      -0.42350272       0.58960530      -0.29212733      -0.44619483 
Ti       4.61409983       3.20378986      10.27383792      -0.00459867      -1.75841076       3.02800725      47.86700000      -3.46870830       2.03605228      -2.45211986       1.36304637       0.15106605       0.64587559 
Ti       2.66806751      -0.84250636       9.35555450       1.12652389      -4.65836542       2.92219927      47.86700000      -0.40302030       0.35023584       1.40811518       0.18527592      -0.72333799      -0.14823402 
Ti       3.71940530       0.56965991      10.98940977       0.25428315      -1.36928008       0.39935525      47.86700000      -0.15299220       1.68566587      -1.20325279      -0.14878426      -0.02369897       0.80027070 
Ti       1.67396369       0.39369769      -2.04746258      -3.42234090      -0.78617174      -3.33215694      47.86700000      -0.14057497      -0.71757183       0.58679793       0.17443034      -0.49739045      -0.98803282 
Ti       4.47846152       3.29861950       2.90260910      -1.37483429       0.11849252      -1.25870940      47.86700000      -0.46667297      -0.07543396       1.93655765      -0.15125991      -0.83671059       0.36437118 
Ti      -1.57811050       3.09119026       4.83318012       3.84631789       5.62642890      -3.39486354      47.86700000      -0.36359959       0.44218075       0.81471381       1.21458720      -0.66290875      -1.39318246 
Ti       0.34237193       1.31128242       5.13629020       0.93472805       0.88677049       3.40177379      47.86700000      -0.07201275      -1.51467331       0.47143600       0.67897179      -0.28220039      -0.48037224 
Ti       8.03419674       3.97688390       9.84807497       6.84560967      -4.06128610       1.09420806      47.86700000      -1.01474939      -0.03796030       0.31510965      -0.91526253      -0.68619048       0.77760040 
Ti       1.18455517       2.94118767      11.53383479       2.38605627       8.69468898      -0.91287570      47.86700000       5.46876335      -0.56532279      -2.48479682       0.17746823      -0.60886098      -0.38497057 
Ti       1.61821108       3.04215016       0.09779757     -10.62567387      -5.24179908      -2.74442635      47.86700000       1.65242666      -0.37369311      -0.02367237       0.29124047      -0.48777404      -0.74779493 
Ti       6.58317135       4.92251729       2.82003263      -1.27838150       5.07304770       4.77099380      47.86700000       0.37158153       1.15249144      -0.23756869       1.65998055      -0.25539912       0.15057322 
Ti       2.08213636       3.16338553       5.36300751       1.68835541       1.27632369      -2.87583227      47.86700000       0.31564553       0.93826797      -0.40372765       0.37058759      -0.91363050       0.52030675 
Ti       3.43158440       4.52055231       8.13921369      -1.38516360       1.34696960       3.70598194      47.86700000       0.39269516       0.39305380       0.21704003      -0.19755429       0.01841945      -0.15479185 
Ti       1.25506568       3.52117564       8.99623481      -3.32739627      -4.23436677       1.04163254      47.86700000       0.74484714       0.80048551      -0.58040473      -0.34140135       1.22907442       0.45637911 
Ti       3.88778152       5.91183532      10.64040590       3.22584717       0.93607759       0.31841354      47.86700000      -0.13923721       0.63675546       0.27485320       0.02675438      -0.23872634      -0.06125166 
Ti      -0.59931921      -4.55314154      -1.73961084       5.21507740      -3.91953888       0.53379131      47.86700000      -0.00751699       0.50453200       0.68890896      -0.97006705      -0.04484682       0.20662279 
Ti       4.79362753      -1.61295181       1.40292647       2.91932722       2.70575132      -0.98585785      47.86700000      -0.11643721       2.07635229       1.19677581       0.20253825      -0.23481070       0.35145196 
Ti      -0.07469913      -0.80782195       2.49599583       6.92591277      -2.25864193       3.16900446      47.86700000       1.77508524      -0.06232950       0.45373013      -1.04288862       0.12545993      -1.11680393 
Ti       2.65301053       2.00875173       7.86971927       0.36654963      -0.17005225       1.23442793      47.86700000      -0.50394795      -0.80551388       0.53967034       0.35399779       0.58940533      -0.12311213 