53
Lattice="8.870728496683665 -2.8425469926068123e-15 1.1324443957325822e-38 -4.43536424834183 7.682276228202598 7.663162776850163e-25 5.474060799563254e-39 -1.4310661229599006e-24 14.346354863571726" Properties=species:S:1:pos:R:3:forces:R:3 n_minim_iter=3 energy=-12.142030784357146 stress="0.011925474615731652 -0.006796880110651804 -9.189171029392078e-07 -0.006796880110651804 0.0040759395144279505 -1.5041615233265757e-06 -9.189171029392078e-07 -1.5041615233265757e-06 -0.005067852181583562" free_energy=-12.142030784357146 config_type=hcp_vac pbc="T T T"
Ti       0.00000000       1.70717250       2.39105914      -0.03117958       0.01800336      -0.00000488
Ti       0.00000000      -0.00000000       4.78211829       0.03117958      -0.01800336       0.00000488
Ti       0.00000000       1.70717250       7.17317743      -0.03117958       0.01800336      -0.00000488
Ti       0.00000000      -0.00000000       9.56423658       0.03117958      -0.01800336       0.00000488
Ti       0.00000000       1.70717250      11.95529572      -0.03117958       0.01800336      -0.00000488
Ti      -1.47845475       2.56075874       0.00000000       0.03117958      -0.01800336       0.00000488
Ti      -1.47845475       4.26793124       2.39105914      -0.03117958       0.01800336      -0.00000488
Ti      -1.47845475       2.56075874       4.78211829       0.03117958      -0.01800336       0.00000488
Ti      -1.47845475       4.26793124       7.17317743      -0.03117958       0.01800336      -0.00000488
Ti      -1.47845475       2.56075874       9.56423658       0.03117958      -0.01800336       0.00000488
Ti      -1.47845475       4.26793124      11.95529572      -0.03117958       0.01800336      -0.00000488
Ti      -2.95690950       5.12151749       0.00000000       0.03117958      -0.01800336       0.00000488
Ti      -2.95690950       6.82868999       2.39105914      -0.03117958       0.01800336      -0.00000488
Ti      -2.95690950       5.12151749       4.78211829       0.03117958      -0.01800336       0.00000488
Ti      -2.95690950       6.82868999       7.17317743      -0.03117958       0.01800336      -0.00000488
Ti      -2.95690950       5.12151749       9.56423658       0.03117958      -0.01800336       0.00000488
Ti      -2.95690950       6.82868999      11.95529572      -0.03117958       0.01800336      -0.00000488
Ti       2.95690950      -0.00000000       0.00000000       0.03117958      -0.01800336       0.00000488
Ti       2.95690950       1.70717250       2.39105914      -0.03117958       0.01800336      -0.00000488
Ti       2.95690950      -0.00000000       4.78211829       0.03117958      -0.01800336       0.00000488
Ti       2.95690950       1.70717250       7.17317743      -0.03117958       0.01800336      -0.00000488
Ti       2.95690950      -0.00000000       9.56423658       0.03117958      -0.01800336       0.00000488
Ti       2.95690950       1.70717250      11.95529572      -0.03117958       0.01800336      -0.00000488
Ti       1.47845475       2.56075874       0.00000000       0.03117958      -0.01800336       0.00000488
Ti       1.47845475       4.26793124       2.39105914      -0.03117958       0.01800336      -0.00000488
Ti       1.47845475       2.56075874       4.78211829       0.03117958      -0.01800336       0.00000488
Ti       1.47845475       4.26793124       7.17317743      -0.03117958       0.01800336      -0.00000488
Ti       1.47845475       2.56075874       9.56423658       0.03117958      -0.01800336       0.00000488
Ti       1.47845475       4.26793124      11.95529572      -0.03117958       0.01800336      -0.00000488
Ti       0.00000000       5.12151749       0.00000000       0.03117958      -0.01800336       0.00000488
Ti       0.00000000       6.82868999       2.39105914      -0.03117958       0.01800336      -0.00000488
Ti       0.00000000       5.12151749       4.78211829       0.03117958      -0.01800336       0.00000488
Ti       0.00000000       6.82868999       7.17317743      -0.03117958       0.01800336      -0.00000488
Ti       0.00000000       5.12151749       9.56423658       0.03117958      -0.01800336       0.00000488
Ti       0.00000000       6.82868999      11.95529572      -0.03117958       0.01800336      -0.00000488
Ti       5.91381900      -0.00000000       0.00000000       0.03117958      -0.01800336       0.00000488
Ti       5.91381900       1.70717250       2.39105914      -0.03117958       0.01800336      -0.00000488
Ti       5.91381900      -0.00000000       4.78211829       0.03117958      -0.01800336       0.00000488
Ti       5.91381900       1.70717250       7.17317743      -0.03117958       0.01800336      -0.00000488
Ti       5.91381900      -0.00000000       9.56423658       0.03117958      -0.01800336       0.00000488
Ti       5.91381900       1.70717250      11.95529572      -0.03117958       0.01800336      -0.00000488
Ti       4.43536425       2.56075874       0.00000000       0.03117958      -0.01800336       0.00000488
Ti       4.43536425       4.26793124       2.39105914      -0.03117958       0.01800336      -0.00000488
Ti       4.43536425       2.56075874       4.78211829       0.03117958      -0.01800336       0.00000488
Ti       4.43536425       4.26793124       7.17317743      -0.03117958       0.01800336      -0.00000488
Ti       4.43536425       2.56075874       9.56423658       0.03117958      -0.01800336       0.00000488
Ti       4.43536425       4.26793124      11.95529572      -0.03117958       0.01800336      -0.00000488
Ti       2.95690950       5.12151749       0.00000000       0.03117958      -0.01800336       0.00000488
Ti       2.95690950       6.82868999       2.39105914      -0.03117958       0.01800336      -0.00000488
Ti       2.95690950       5.12151749       4.78211829       0.03117958      -0.01800336       0.00000488
Ti       2.95690950       6.82868999       7.17317743      -0.03117958       0.01800336      -0.00000488
Ti       2.95690950       5.12151749       9.56423658       0.03117958      -0.01800336       0.00000488
Ti       2.95690950       6.82868999      11.95529572      -0.03117958       0.01800336      -0.00000488
