2
Lattice="2.7458952134405785 -8.728010290631048e-16 4.67642361740049e-41 -1.3722173904781572 2.37675023933775 2.3708369008001907e-25 2.1905642829302287e-40 4.347319353472243e-25 4.347020259615542" Properties=species:S:1:pos:R:3:force:R:3 virial="3.9331661363609225 -0.7233873789044059 0.22758917342297666 -0.7233873789044059 3.6923863722207964 -0.06478410430696761 0.22758917342297666 -0.06478410430696761 4.459963195067579" energy=-3186.81976591 config_type=FLD_Ti_hcp n_minim_iter=1 pbc="T T T"
Ti       0.16261129       0.06946290      -0.02051359       0.03449000      -0.06537000       2.23328000
Ti      -0.11437788       1.64779381       2.40024201      -0.03449000       0.06537000      -2.23328000
2
Lattice="2.744434780956316 0.05220736498138266 4.67642361740049e-41 -1.3722173904781572 2.37675023933775 2.3708369008001907e-25 2.1905642829302287e-40 4.347319353472243e-25 4.347020259615542" Properties=species:S:1:pos:R:3:force:R:3 virial="2.463390705863881 0.0843843791729561 -0.0038314164218266515 0.0843843791729561 3.1992926507935415 -0.0045349341845343375 -0.0038314164218266515 -0.0045349341845343375 3.233404852993194" energy=-3187.09242939 config_type=FLD_Ti_hcp n_minim_iter=1 pbc="T T T"
Ti      -0.17717248       0.06999359      -0.04228347       0.16554000      -0.09420000       0.12063000
Ti       0.05371271       1.42659416       2.15111428      -0.16554000       0.09420000      -0.12063000
2
Lattice="2.744434780956316 -8.728010290631048e-16 0.11303009831927249 -1.3722173904781572 2.37675023933775 2.3708369008001907e-25 2.1905642829302287e-40 4.347319353472243e-25 4.347020259615542" Properties=species:S:1:pos:R:3:force:R:3 virial="2.611591325947117 -0.1893275579696334 -0.24817890442554413 -0.1893275579696334 3.7062565269707743 -0.12542545437312666 -0.24817890442554413 -0.12542545437312666 3.546969284632449" energy=-3187.05165139 config_type=FLD_Ti_hcp n_minim_iter=1 pbc="T T T"
Ti       0.01586146       0.13847185       0.01639140      -0.11226000      -0.07391000      -0.13674000
Ti      -0.15685817       1.45981901       2.19375468       0.11226000       0.07391000       0.13674000
2
Lattice="2.744434780956316 -8.728010290631048e-16 4.67642361740049e-41 -1.2519494701698033 2.37675023933775 2.3708369008001907e-25 2.1905642829302287e-40 4.347319353472243e-25 4.347020259615542" Properties=species:S:1:pos:R:3:force:R:3 virial="3.768980492220284 -0.18229713197677533 0.2712355160894724 -0.18229713197677533 5.591098781068325 -0.5069376929613223 0.2712355160894724 -0.5069376929613223 5.2169519866329495" energy=-3186.47175114 config_type=FLD_Ti_hcp n_minim_iter=1 pbc="T T T"
Ti      -0.00833203       0.18437640       0.21106957      -0.16233000       0.26683000      -3.57682000
Ti       0.07052645       1.52739002       2.02062543       0.16233000      -0.26683000       3.57682000
2
Lattice="2.744434780956316 -8.728010290631048e-16 4.67642361740049e-41 -1.3722173904781572 2.2676369254275226 2.3708369008001907e-25 2.1905642829302287e-40 4.347319353472243e-25 4.347020259615542" Properties=species:S:1:pos:R:3:force:R:3 virial="4.650835363688846 0.39964282661566763 0.04196645216640566 0.39964282661566763 5.192645648928436 0.06617113225745744 0.04196645216640566 0.06617113225745744 4.731103998114467" energy=-3186.85957137 config_type=FLD_Ti_hcp n_minim_iter=1 pbc="T T T"
Ti      -0.04475761       0.01783950       0.04503078      -0.02797000      -0.09466000      -0.61701000
Ti       0.14486087       1.62958512       2.14261586       0.02797000       0.09466000       0.61701000
2
Lattice="2.744434780956316 -8.728010290631048e-16 4.67642361740049e-41 -1.3722173904781572 2.37675023933775 -0.06366002249812225 2.1905642829302287e-40 4.347319353472243e-25 4.347020259615542" Properties=species:S:1:pos:R:3:force:R:3 virial="3.3936916628212352 0.4726573535178833 0.01547507814327258 0.4726573535178833 3.3642682902990795 0.14475156007095155 0.01547507814327258 0.14475156007095155 3.7041294359699393" energy=-3187.05072247 config_type=FLD_Ti_hcp n_minim_iter=1 pbc="T T T"
Ti      -0.18462911      -0.08634734       0.11697847       0.10644000      -0.04629000      -0.56502000
Ti       0.03482688       1.48803104       2.17178605      -0.10644000       0.04629000       0.56502000
2
Lattice="2.744434780956316 -8.728010290631048e-16 4.67642361740049e-41 -1.3722173904781572 2.37675023933775 2.3708369008001907e-25 -0.11425612912280934 4.347319353472243e-25 4.347020259615542" Properties=species:S:1:pos:R:3:force:R:3 virial="4.007081066400006 0.39888309831071295 0.07684445860865807 0.39888309831071295 3.1879694522977844 -0.06787506855846195 0.07684445860865807 -0.06787506855846195 3.968937134008799" energy=-3186.98023744 config_type=FLD_Ti_hcp n_minim_iter=1 pbc="T T T"
Ti      -0.02701743       0.04308097       0.02823824      -0.00570000       0.05837000       1.30571000
Ti       0.01112596       1.79510717       2.35822371       0.00570000      -0.05837000      -1.30571000
2
Lattice="2.744434780956316 -8.728010290631048e-16 4.67642361740049e-41 -1.3722173904781572 2.37675023933775 2.3708369008001907e-25 2.1905642829302287e-40 -0.011862634529122014 4.347020259615542" Properties=species:S:1:pos:R:3:force:R:3 virial="3.5902420211840846 0.0040448177738646035 0.001976306282246599 0.0040448177738646035 3.4929320765744674 0.013833436066249255 0.001976306282246599 0.013833436066249255 3.7407133128513412" energy=-3187.07601771 config_type=FLD_Ti_hcp n_minim_iter=1 pbc="T T T"
Ti      -0.01270124      -0.00979582       0.01700120       0.00085000       0.01294000      -0.44969000
Ti      -0.01261617       1.59035802       2.13268292      -0.00085000      -0.01294000       0.44969000
2
Lattice="2.744434780956316 -8.728010290631048e-16 4.67642361740049e-41 -1.3722173904781572 2.37675023933775 2.3708369008001907e-25 2.1905642829302287e-40 4.347319353472243e-25 4.233312138153784" Properties=species:S:1:pos:R:3:force:R:3 virial="4.187611985209901 -0.41419078687720867 0.03357253751721993 -0.41419078687720867 3.916794262745856 -0.013809559491284503 0.03357253751721993 -0.013809559491284503 4.948590823601901" energy=-3186.95682031 config_type=FLD_Ti_hcp n_minim_iter=1 pbc="T T T"
Ti      -0.01271771       0.00918376       0.10321662      -0.05258000      -0.00066000       0.46822000
Ti      -0.16536866       1.63699148       2.27171806       0.05258000       0.00066000      -0.46822000
2
Lattice="2.5541753516235945 -8.728010290631048e-16 4.67642361740049e-41 -1.3722173904781572 2.37675023933775 2.3708369008001907e-25 2.1905642829302287e-40 4.347319353472243e-25 4.347020259615542" Properties=species:S:1:pos:R:3:force:R:3 virial="6.157707237879129 0.5313984436161467 0.049284187365485864 0.5313984436161467 5.423713117045787 0.2885254886484128 0.049284187365485864 0.2885254886484128 5.5434764874440585" energy=-3186.66642678 config_type=FLD_Ti_hcp n_minim_iter=1 pbc="T T T"
Ti      -0.03643159       0.06445509       0.01809665       0.10118000       0.28146000       1.15125000
Ti      -0.00124375       1.43792439       2.31994820      -0.10118000      -0.28146000      -1.15125000
2
Lattice="2.8875103416609362 -8.728010290631048e-16 4.67642361740049e-41 -1.3722173904781572 2.37675023933775 2.3708369008001907e-25 2.1905642829302287e-40 4.347319353472243e-25 4.347020259615542" Properties=species:S:1:pos:R:3:force:R:3 virial="1.0121328871420054 -0.6199695907414647 0.03380342454555968 -0.6199695907414647 2.6630769477230407 -0.08872961364451665 0.03380342454555968 -0.08872961364451665 2.9354371387706895" energy=-3187.09129048 config_type=FLD_Ti_hcp n_minim_iter=1 pbc="T T T"
Ti       0.18674335       0.09092496      -0.19032559      -0.14603000      -0.21544000       1.02394000
Ti       0.05281828       1.55498884       2.12142848       0.14603000       0.21544000      -1.02394000
2
Lattice="2.744434780956316 -0.10853526536098125 4.67642361740049e-41 -1.3722173904781572 2.37675023933775 2.3708369008001907e-25 2.1905642829302287e-40 4.347319353472243e-25 4.347020259615542" Properties=species:S:1:pos:R:3:force:R:3 virial="4.229792226926001 0.6908105764795694 0.0041895595884019286 0.6908105764795694 3.8648839387125595 -0.0024524124710281416 0.0041895595884019286 -0.0024524124710281416 4.0700257083943745" energy=-3186.97125155 config_type=FLD_Ti_hcp n_minim_iter=1 pbc="T T T"
Ti       0.00364186      -0.22238703       0.06609210       0.10122000       0.09845000       0.02843000
Ti       0.06729080       1.56135900       2.24394055      -0.10122000      -0.09845000      -0.02843000
2
Lattice="2.744434780956316 0.04224807226614375 4.67642361740049e-41 -1.3722173904781572 2.37675023933775 2.3708369008001907e-25 2.1905642829302287e-40 4.347319353472243e-25 4.347020259615542" Properties=species:S:1:pos:R:3:force:R:3 virial="3.3170457948128638 0.0648214385135091 -0.006944892677785965 0.0648214385135091 3.0866676922993173 0.0035004787368365345 -0.006944892677785965 0.0035004787368365345 3.446723132048819" energy=-3187.1121609 config_type=FLD_Ti_hcp n_minim_iter=1 pbc="T T T"
Ti      -0.02520763      -0.00524135      -0.06500099       0.03442000       0.01220000       0.23376000
Ti       0.07837557       1.59695828       2.14131610      -0.03442000      -0.01220000      -0.23376000
2
Lattice="2.744434780956316 -8.728010290631048e-16 -0.19975077100692948 -1.3722173904781572 2.37675023933775 2.3708369008001907e-25 2.1905642829302287e-40 4.347319353472243e-25 4.347020259615542" Properties=species:S:1:pos:R:3:force:R:3 virial="3.5846881173827536 0.37979697392557066 0.3515697914420743 0.37979697392557066 3.2682180706036768 0.2063308356962497 0.3515697914420743 0.2063308356962497 3.5441356999736287" energy=-3187.05276412 config_type=FLD_Ti_hcp n_minim_iter=1 pbc="T T T"
Ti      -0.06561120       0.07940723      -0.06180619       0.11121000       0.03848000       0.46565000
Ti       0.04862864       1.69818329       2.09985323      -0.11121000      -0.03848000      -0.46565000
2
Lattice="2.744434780956316 -8.728010290631048e-16 0.04593571614886839 -1.3722173904781572 2.37675023933775 2.3708369008001907e-25 2.1905642829302287e-40 4.347319353472243e-25 4.347020259615542" Properties=species:S:1:pos:R:3:force:R:3 virial="3.7580670057690426 -0.12764351174174818 -0.06183199930856564 -0.12764351174174818 3.4322212289000054 -0.07439155227106178 -0.06183199930856564 -0.07439155227106178 3.8863095859056505" energy=-3187.04226389 config_type=FLD_Ti_hcp n_minim_iter=1 pbc="T T T"
Ti      -0.02724400      -0.08284876      -0.09651722      -0.02459000       0.02891000       0.87761000
Ti      -0.06474808       1.56801106       2.19770316       0.02459000      -0.02891000      -0.87761000
2
Lattice="2.744434780956316 -8.728010290631048e-16 4.67642361740049e-41 -1.4180297446204055 2.37675023933775 2.3708369008001907e-25 2.1905642829302287e-40 4.347319353472243e-25 4.347020259615542" Properties=species:S:1:pos:R:3:force:R:3 virial="3.2892231606034334 0.4996428627788273 0.0001766234144964723 0.4996428627788273 3.5592870865085704 -0.0016421730091310286 0.0001766234144964723 -0.0016421730091310286 3.6531077453063525" energy=-3187.07303861 config_type=FLD_Ti_hcp n_minim_iter=1 pbc="T T T"
Ti      -0.14323410       0.07250752       0.04692608       0.12553000      -0.03582000      -0.04204000
Ti      -0.04682002       1.58911898       2.21438081      -0.12553000       0.03582000       0.04204000
2
Lattice="2.744434780956316 -8.728010290631048e-16 4.67642361740049e-41 -1.3567179442638901 2.37675023933775 2.3708369008001907e-25 2.1905642829302287e-40 4.347319353472243e-25 4.347020259615542" Properties=species:S:1:pos:R:3:force:R:3 virial="3.528852642275976 0.5056554919212152 -0.0015627101703445394 0.5056554919212152 2.9588012798980885 -0.002250798181929995 -0.0015627101703445394 -0.002250798181929995 3.500543342293155" energy=-3187.0740917 config_type=FLD_Ti_hcp n_minim_iter=1 pbc="T T T"
Ti      -0.14574359       0.00772682       0.06616600       0.07208000       0.01558000      -0.05814000
Ti       0.10943006       1.69302812       2.23073430      -0.07208000      -0.01558000       0.05814000
2
Lattice="2.744434780956316 -8.728010290631048e-16 4.67642361740049e-41 -1.3722173904781572 2.24821530926543 2.3708369008001907e-25 2.1905642829302287e-40 4.347319353472243e-25 4.347020259615542" Properties=species:S:1:pos:R:3:force:R:3 virial="5.380817924219271 0.21805003296553055 0.13676584939015596 0.21805003296553055 6.025290593223729 0.2166577138330079 0.13676584939015596 0.2166577138330079 5.500432651838931" energy=-3186.6735993 config_type=FLD_Ti_hcp n_minim_iter=1 pbc="T T T"
Ti       0.04205709      -0.07921137      -0.01184128      -0.06360000      -0.17173000      -1.85631000
Ti       0.14288076       1.48540035       1.97783771       0.06360000       0.17173000       1.85631000
2
Lattice="2.744434780956316 -8.728010290631048e-16 4.67642361740049e-41 -1.3722173904781572 2.304926749800521 2.3708369008001907e-25 2.1905642829302287e-40 4.347319353472243e-25 4.347020259615542" Properties=species:S:1:pos:R:3:force:R:3 virial="4.186638055700765 0.23845482146978647 0.025720875014342295 0.23845482146978647 4.802225509564907 0.02581321155343277 0.025720875014342295 0.02581321155343277 4.395507597854794" energy=-3186.94754854 config_type=FLD_Ti_hcp n_minim_iter=1 pbc="T T T"
Ti      -0.01333246       0.03095978       0.05116878       0.02589000      -0.07263000      -0.41333000
Ti       0.10532043       1.59122923       2.17307108      -0.02589000       0.07263000       0.41333000
2
Lattice="2.744434780956316 -8.728010290631048e-16 4.67642361740049e-41 -1.3722173904781572 2.37675023933775 0.10190112398489723 2.1905642829302287e-40 4.347319353472243e-25 4.347020259615542" Properties=species:S:1:pos:R:3:force:R:3 virial="3.5447968874250906 -0.53202547389196 -0.005281004697970675 -0.53202547389196 3.0384478211938437 -0.25523286840851045 -0.005281004697970675 -0.25523286840851045 3.5160136420474584" energy=-3187.06508725 config_type=FLD_Ti_hcp n_minim_iter=1 pbc="T T T"
Ti       0.15929660      -0.08175308      -0.04640149      -0.09922000       0.03795000      -0.20518000
Ti      -0.05547875       1.59185699       2.16874273       0.09922000      -0.03795000       0.20518000
2
Lattice="2.744434780956316 -8.728010290631048e-16 4.67642361740049e-41 -1.3722173904781572 2.37675023933775 0.11633359895710671 2.1905642829302287e-40 4.347319353472243e-25 4.347020259615542" Properties=species:S:1:pos:R:3:force:R:3 virial="3.346543829792832 -0.2750964543767019 0.032992475127516394 -0.2750964543767019 4.106893647987976 -0.14189585324097653 0.032992475127516394 -0.14189585324097653 4.217252311008654" energy=-3186.92909196 config_type=FLD_Ti_hcp n_minim_iter=1 pbc="T T T"
Ti      -0.02278430       0.09064450       0.01097900      -0.05245000      -0.06122000       1.68321000
Ti      -0.14918336       1.58664953       2.44642183       0.05245000       0.06122000      -1.68321000
2
Lattice="2.744434780956316 -8.728010290631048e-16 4.67642361740049e-41 -1.3722173904781572 2.37675023933775 2.3708369008001907e-25 -0.034828245140701736 4.347319353472243e-25 4.347020259615542" Properties=species:S:1:pos:R:3:force:R:3 virial="5.069769642395555 0.3182838878363663 0.26944715977335326 0.3182838878363663 4.259557335305313 0.23241057478144925 0.26944715977335326 0.23241057478144925 5.595339866744671" energy=-3186.54194844 config_type=FLD_Ti_hcp n_minim_iter=1 pbc="T T T"
Ti      -0.01058025      -0.11452371       0.19718953      -0.14302000      -0.11394000      -3.57235000
Ti       0.06126733       1.58789020       2.03274057       0.14302000       0.11394000       3.57235000
2
Lattice="2.744434780956316 -8.728010290631048e-16 4.67642361740049e-41 -1.3722173904781572 2.37675023933775 2.3708369008001907e-25 0.0024196767800025443 4.347319353472243e-25 4.347020259615542" Properties=species:S:1:pos:R:3:force:R:3 virial="3.4874103826543372 -0.7965227536251812 -0.012611938263789686 -0.7965227536251812 2.5841541704398856 0.006064129556835293 -0.012611938263789686 0.006064129556835293 3.2777435235480095" energy=-3187.06310492 config_type=FLD_Ti_hcp n_minim_iter=1 pbc="T T T"
Ti       0.24643424      -0.17249740       0.06245799      -0.08963000       0.04585000       0.04466000
Ti      -0.07589899       1.58968227       2.24287119       0.08963000      -0.04585000      -0.04466000
2
Lattice="2.744434780956316 -8.728010290631048e-16 4.67642361740049e-41 -1.3722173904781572 2.37675023933775 2.3708369008001907e-25 2.1905642829302287e-40 -0.1023244181410554 4.347020259615542" Properties=species:S:1:pos:R:3:force:R:3 virial="3.4431133010895696 -0.6261960169487188 -0.050680478295702686 -0.6261960169487188 3.2505748427099066 0.11505475751332826 -0.050680478295702686 0.11505475751332826 3.8352673658672316" energy=-3187.00593614 config_type=FLD_Ti_hcp n_minim_iter=1 pbc="T T T"
Ti       0.17918964       0.07931390      -0.03420236      -0.07211000      -0.04232000      -0.98619000
Ti      -0.10808682       1.62470130       2.01144017       0.07211000       0.04232000       0.98619000
2
Lattice="2.744434780956316 -8.728010290631048e-16 4.67642361740049e-41 -1.3722173904781572 2.37675023933775 2.3708369008001907e-25 2.1905642829302287e-40 0.2137139164144014 4.347020259615542" Properties=species:S:1:pos:R:3:force:R:3 virial="3.127523362767698 0.056652756597905043 -0.006377556477750376 0.056652756597905043 3.813365354560192 -0.23390815727991535 -0.006377556477750376 -0.23390815727991535 3.639583311726787" energy=-3187.0647175 config_type=FLD_Ti_hcp n_minim_iter=1 pbc="T T T"
Ti       0.02509511       0.00182110       0.03336773       0.02101000      -0.06156000       0.47153000
Ti       0.05363312       1.58960584       2.26993573      -0.02101000       0.06156000      -0.47153000
2
Lattice="2.744434780956316 -8.728010290631048e-16 4.67642361740049e-41 -1.3722173904781572 2.37675023933775 2.3708369008001907e-25 2.1905642829302287e-40 4.347319353472243e-25 4.400945398653807" Properties=species:S:1:pos:R:3:force:R:3 virial="2.6233492356439054 -0.20925249465903545 0.008493327662940196 -0.20925249465903545 3.474446495552773 -0.004957531867305703 0.008493327662940196 -0.004957531867305703 3.038697200439879" energy=-3187.10569353 config_type=FLD_Ti_hcp n_minim_iter=1 pbc="T T T"
Ti       0.08905416       0.12140916       0.00407528      -0.10111000      -0.09398000       0.25631000
Ti      -0.05049897       1.51395900       2.24609730       0.10111000       0.09398000      -0.25631000
2
Lattice="2.744434780956316 -8.728010290631048e-16 4.67642361740049e-41 -1.3722173904781572 2.37675023933775 2.3708369008001907e-25 2.1905642829302287e-40 4.347319353472243e-25 4.600641355095457" Properties=species:S:1:pos:R:3:force:R:3 virial="1.9118620947954819 -0.25833711938965415 -0.005546600115777458 -0.25833711938965415 2.4877231063970338 0.028768410886523054 -0.005546600115777458 0.028768410886523054 1.2441342661883719" energy=-3187.17107014 config_type=FLD_Ti_hcp n_minim_iter=1 pbc="T T T"
Ti       0.02331809       0.05248102       0.05478904      -0.10439000      -0.07093000      -0.57132000
Ti      -0.15730277       1.48410464       2.24438148       0.10439000       0.07093000       0.57132000
2
Lattice="2.5013230402706346 -8.728010290631048e-16 4.67642361740049e-41 -1.3722173904781572 2.37675023933775 2.3708369008001907e-25 2.1905642829302287e-40 4.347319353472243e-25 4.347020259615542" Properties=species:S:1:pos:R:3:force:R:3 virial="7.464938870500057 1.0069930611616171 -0.13361679897476725 1.0069930611616171 6.209809980490559 0.37823418900632017 -0.13361679897476725 0.37823418900632017 6.426047265264807" energy=-3186.25263421 config_type=FLD_Ti_hcp n_minim_iter=1 pbc="T T T"
Ti      -0.26966101      -0.02565940      -0.04249212      -0.04672000       0.26645000       2.52469000
Ti      -0.11711584       1.53871286       2.36606574       0.04672000      -0.26645000      -2.52469000
2
Lattice="3.0141688907531843 -8.728010290631048e-16 4.67642361740049e-41 -1.3722173904781572 2.37675023933775 2.3708369008001907e-25 2.1905642829302287e-40 4.347319353472243e-25 4.347020259615542" Properties=species:S:1:pos:R:3:force:R:3 virial="-1.0332201480810002 -0.4558919416594705 -0.004317377942542878 -0.4558919416594705 1.8931877212326962 -0.06853341836670239 -0.004317377942542878 -0.06853341836670239 1.4430511172681064" energy=-3187.1116722 config_type=FLD_Ti_hcp n_minim_iter=1 pbc="T T T"
Ti      -0.09379867       0.21896762       0.12460299      -0.08965000      -0.52120000       0.17910000
Ti      -0.05536588       1.56316724       2.32833360       0.08965000       0.52120000      -0.17910000
2
Lattice="2.744434780956316 -0.06434274975114715 4.67642361740049e-41 -1.3722173904781572 2.37675023933775 2.3708369008001907e-25 2.1905642829302287e-40 4.347319353472243e-25 4.347020259615542" Properties=species:S:1:pos:R:3:force:R:3 virial="3.95221884249997 0.4791122406077926 -0.0011176728572353913 0.4791122406077926 3.8754309462404324 0.0009373298298183092 -0.0011176728572353913 0.0009373298298183092 3.944862138886873" energy=-3187.02801367 config_type=FLD_Ti_hcp n_minim_iter=1 pbc="T T T"
Ti      -0.03749447       0.14187733       0.11726957       0.08211000       0.02441000      -0.02460000
Ti       0.02842274       1.78820276       2.28732816      -0.08211000      -0.02441000       0.02460000
2
Lattice="2.744434780956316 0.153674001590204 4.67642361740049e-41 -1.3722173904781572 2.37675023933775 2.3708369008001907e-25 2.1905642829302287e-40 4.347319353472243e-25 4.347020259615542" Properties=species:S:1:pos:R:3:force:R:3 virial="2.746392478255843 -0.7417920206015725 0.11445878807047713 -0.7417920206015725 2.558249985538772 -0.17261674875312405 0.11445878807047713 -0.17261674875312405 3.3817310240755747" energy=-3187.04551995 config_type=FLD_Ti_hcp n_minim_iter=1 pbc="T T T"
Ti       0.04261696       0.04688704       0.06230149      -0.23739000       0.06656000      -1.31335000
Ti      -0.05665611       1.56309950       2.07131603       0.23739000      -0.06656000       1.31335000
2
Lattice="2.744434780956316 -8.728010290631048e-16 -0.05152331233266172 -1.3722173904781572 2.37675023933775 2.3708369008001907e-25 2.1905642829302287e-40 4.347319353472243e-25 4.347020259615542" Properties=species:S:1:pos:R:3:force:R:3 virial="3.754776642520226 0.24553397764232793 0.0874949566892169 0.24553397764232793 3.0704072794171355 0.04319805210181857 0.0874949566892169 0.04319805210181857 3.6412477838844413" energy=-3187.06642984 config_type=FLD_Ti_hcp n_minim_iter=1 pbc="T T T"
Ti      -0.00454478      -0.19171818      -0.12113117       0.03682000       0.10170000       0.39835000
Ti       0.07663697       1.55065127       2.08745465      -0.03682000      -0.10170000      -0.39835000
2
Lattice="2.744434780956316 -8.728010290631048e-16 0.022604409259285668 -1.3722173904781572 2.37675023933775 2.3708369008001907e-25 2.1905642829302287e-40 4.347319353472243e-25 4.347020259615542" Properties=species:S:1:pos:R:3:force:R:3 virial="3.9438985527868087 -0.01792232120505336 -0.036125151540344104 -0.01792232120505336 3.8438072318422947 -0.039129519360476483 -0.036125151540344104 -0.039129519360476483 4.413700376452086" energy=-3186.92990885 config_type=FLD_Ti_hcp n_minim_iter=1 pbc="T T T"
Ti       0.00233140       0.10441777      -0.05116163      -0.00649000      -0.00314000       1.81330000
Ti       0.00485216       1.70860772       2.32104054       0.00649000       0.00314000      -1.81330000
2
Lattice="2.744434780956316 -8.728010290631048e-16 4.67642361740049e-41 -1.5094619628652182 2.37675023933775 2.3708369008001907e-25 2.1905642829302287e-40 4.347319353472243e-25 4.347020259615542" Properties=species:S:1:pos:R:3:force:R:3 virial="3.999621647264122 1.1304643602498707 -0.10689149937999731 1.1304643602498707 3.2827978202359898 0.04592350358803668 -0.10689149937999731 0.04592350358803668 4.091876410298914" energy=-3186.91129337 config_type=FLD_Ti_hcp n_minim_iter=1 pbc="T T T"
Ti      -0.04164915      -0.12690420      -0.10471972       0.18276000       0.06791000      -1.51919000
Ti      -0.00372454       1.59290039       1.89553992      -0.18276000      -0.06791000       1.51919000
2
Lattice="2.744434780956316 -8.728010290631048e-16 4.67642361740049e-41 -1.207892107699748 2.37675023933775 2.3708369008001907e-25 2.1905642829302287e-40 4.347319353472243e-25 4.347020259615542" Properties=species:S:1:pos:R:3:force:R:3 virial="3.61256382281095 -1.2622195872110542 -0.042426430771954224 -1.2622195872110542 3.0399560223344633 0.0008829400951131266 -0.042426430771954224 0.0008829400951131266 3.580666660621629" energy=-3187.01453062 config_type=FLD_Ti_hcp n_minim_iter=1 pbc="T T T"
Ti       0.08346025      -0.05369792      -0.02611255      -0.23396000       0.12647000       0.24305000
Ti       0.06242816       1.67387151       2.18059143       0.23396000      -0.12647000      -0.24305000
2
Lattice="2.744434780956316 -8.728010290631048e-16 4.67642361740049e-41 -1.3722173904781572 1.9708515061202092 2.3708369008001907e-25 2.1905642829302287e-40 4.347319353472243e-25 4.347020259615542" Properties=species:S:1:pos:R:3:force:R:3 virial="9.254364126425308 -0.08821697466826721 -0.029232978420374985 -0.08821697466826721 9.593207685748762 0.5064055334875273 -0.029232978420374985 0.5064055334875273 8.04379335019086" energy=-3185.75730834 config_type=FLD_Ti_hcp n_minim_iter=1 pbc="T T T"
Ti       0.05429590      -0.08970528       0.05928466       0.00352000      -0.48020000      -1.43143000
Ti      -0.00506485       1.45847939       2.09420309      -0.00352000       0.48020000       1.43143000
2
Lattice="2.744434780956316 -8.728010290631048e-16 4.67642361740049e-41 -1.3722173904781572 2.5555404467104594 2.3708369008001907e-25 2.1905642829302287e-40 4.347319353472243e-25 4.347020259615542" Properties=species:S:1:pos:R:3:force:R:3 virial="1.6990067729211773 0.37606070128053914 -0.03761432873271932 0.37606070128053914 0.6884075996005383 -0.033184557810926336 -0.03761432873271932 -0.033184557810926336 1.878022304726917" energy=-3187.2229556 config_type=FLD_Ti_hcp n_minim_iter=1 pbc="T T T"
Ti       0.00394375       0.14386159       0.16630395       0.17096000      -0.00021000      -0.29259000
Ti       0.13424814       1.66445671       2.28859749      -0.17096000       0.00021000       0.29259000
2
Lattice="2.744434780956316 -8.728010290631048e-16 4.67642361740049e-41 -1.3722173904781572 2.37675023933775 -0.3128844381380831 2.1905642829302287e-40 4.347319353472243e-25 4.347020259615542" Properties=species:S:1:pos:R:3:force:R:3 virial="3.6524308068690288 -0.6714370958009857 0.1197050148673456 -0.6714370958009857 3.326603612623761 0.6058811386889784 0.1197050148673456 0.6058811386889784 3.702739632689338" energy=-3186.93839552 config_type=FLD_Ti_hcp n_minim_iter=1 pbc="T T T"
Ti       0.12666390       0.12054877      -0.01388726      -0.08896000       0.11386000       1.20480000
Ti      -0.10312214       1.62501741       2.11196711       0.08896000      -0.11386000      -1.20480000
2
Lattice="2.744434780956316 -8.728010290631048e-16 4.67642361740049e-41 -1.3722173904781572 2.37675023933775 0.18212365225811641 2.1905642829302287e-40 4.347319353472243e-25 4.347020259615542" Properties=species:S:1:pos:R:3:force:R:3 virial="3.4419158722093264 0.18957373349023918 0.041937088346019606 0.18957373349023918 3.695125004400635 -0.3796348626553514 0.041937088346019606 -0.3796348626553514 3.8507127118124727" energy=-3187.02144115 config_type=FLD_Ti_hcp n_minim_iter=1 pbc="T T T"
Ti       0.04223548       0.17186043      -0.10366568       0.04593000       0.01233000      -0.94191000
Ti       0.10929986       1.66966704       2.07418978      -0.04593000      -0.01233000       0.94191000
2
Lattice="2.744434780956316 -8.728010290631048e-16 4.67642361740049e-41 -1.3722173904781572 2.37675023933775 2.3708369008001907e-25 -0.0933563110239911 4.347319353472243e-25 4.347020259615542" Properties=species:S:1:pos:R:3:force:R:3 virial="3.4837124405241733 -0.4616566172236085 0.11518908333657758 -0.4616566172236085 3.2396210054184795 -0.004098264939373556 0.11518908333657758 -0.004098264939373556 3.5655531472437034" energy=-3187.07485732 config_type=FLD_Ti_hcp n_minim_iter=1 pbc="T T T"
Ti       0.17204379      -0.05215065      -0.14341255      -0.10715000      -0.00278000      -0.08413000
Ti      -0.07118099       1.55949754       2.01756513       0.10715000       0.00278000       0.08413000
2
Lattice="2.744434780956316 -8.728010290631048e-16 4.67642361740049e-41 -1.3722173904781572 2.37675023933775 2.3708369008001907e-25 0.12717056451559539 4.347319353472243e-25 4.347020259615542" Properties=species:S:1:pos:R:3:force:R:3 virial="3.2294901128939943 0.3498752331316497 -0.0976874373381957 0.3498752331316497 3.743744050299489 -0.03077052425677169 -0.0976874373381957 -0.03077052425677169 3.904573119478589" energy=-3187.010108 config_type=FLD_Ti_hcp n_minim_iter=1 pbc="T T T"
Ti      -0.06514634       0.03783073       0.05580705       0.08285000      -0.05210000      -1.03748000
Ti       0.15511612       1.49598127       2.10136263      -0.08285000       0.05210000       1.03748000
2
Lattice="2.744434780956316 -8.728010290631048e-16 4.67642361740049e-41 -1.3722173904781572 2.37675023933775 2.3708369008001907e-25 2.1905642829302287e-40 -0.18443180771482784 4.347020259615542" Properties=species:S:1:pos:R:3:force:R:3 virial="4.085015174671043 0.3458723589942938 -0.07755608461035178 0.3458723589942938 3.302069239926721 0.13127579526792613 -0.07755608461035178 0.13127579526792613 4.136748491336325" energy=-3186.94179959 config_type=FLD_Ti_hcp n_minim_iter=1 pbc="T T T"
Ti      -0.11655066       0.00060596      -0.08240212      -0.00568000       0.01144000       1.59891000
Ti      -0.01164464       1.61065869       2.27413061       0.00568000      -0.01144000      -1.59891000
2